{
  "ident": "BUT1OL",
  "formula": "C4H10O",
  "cas_number": "111-27-3",
  "name": "1-BUTANOL",
  "aliases": [
    "1-Butanol",
    "Butan-1-ol",
    "Butanol"
  ],
  "mol_weight": 74.1216,
  "critical": {
    "ref": "Default",
    "bib_reference": "webbook.nist.gov,Acentric:www.ethermo.us/Mars264.htm",
    "temperature": 562.2,
    "pressure": 4500000.0,
    "compressibility": 0.2638
  },
  "triple": {
    "ref": "Default",
    "bib_reference": "",
    "temperature": 0.0,
    "pressure": 0.0
  },
  "acentric_factor": {
    "ref": "Default",
    "bib_reference": "",
    "acf": 0.59298
  },
  "boiling_temperature": {
    "bib_reference": "",
    "temperature": 390.6
  },
  "saturation": {
    "ref": "Default",
    "bib_reference": "",
    "correlation": 1,
    "ant": [
      0.0,
      0.0,
      0.0
    ],
    "Tmin": 0.0,
    "Tmax": 0.0
  },
  "ideal_heat_capacity-1": {
    "ref": "Default",
    "bib_reference": "",
    "correlation": 2,
    "cp": [
      0.0,
      0.0,
      0.0,
      0.0,
      0.0,
      0.0,
      0.0,
      0.0,
      0.0,
      0.0
    ],
    "Tmin": -175.0,
    "Tmax": 1200.0
  },
  "reference_state": {
    "bib_reference": "",
    "enthalpy": 0.0,
    "entropy": 0.0
  },
  "standard_formation_energy": {
    "bib_reference": "",
    "enthalpy": 0.0,
    "gibbs": 0.0
  },
  "rackett_factor": {
    "bib_reference": "10.1016/j.fluid.2016.09.003",
    "Zra": 0.2549
  },
  "dipole_moment": {
    "mu": 0.0,
    "bib_reference": ""
  },
  "quadrupole_moment": {
    "Q": 0.0,
    "bib_reference": ""
  },
  "SRK": {
    "TWU-1": {
      "ref": "tcRK",
      "bib_reference": "10.1016/j.fluid.2016.09.003",
      "correlation": [
        1.5156,
        1,
        0.8554
      ]
    },
    "volume_shift": {
      "ref": "tcRK",
      "bib_reference": "10.1016/j.fluid.2016.09.003",
      "ciA": 1.74514e-05,
      "ciB": 0.0,
      "ciC": 0.0,
      "correlation": 1
    },
    "CPA-1": {
      "ref": "Default/Oliveira2008",
      "bib_reference": "10.1016/j.fluid.2008.02.020",
      "a0": 1.8019E+6,
      "b": 8.1309E-2,
      "alphaParams": [0.98766,0.0,0.0],
      "alphaCorr": "Classic",
      "eps": 20069.0,
      "beta": 3.6694E-3,
      "assoc_scheme": "2B"
    }
  },
  "PR": {
    "TWU-1": {
      "ref": "tcPR",
      "bib_reference": "10.1016/j.fluid.2016.09.003",
      "correlation": [
        1.6267,
        1,
        0.6998
      ]
    },
    "volume_shift": {
      "ref": "tcPR",
      "bib_reference": "10.1016/j.fluid.2016.09.003",
      "ciA": 1.9193e-06,
      "ciB": 0.0,
      "ciC": 0.0,
      "correlation": 1
    }
  },
  "PC-SAFT-1": {
    "m": 2.9614,
    "sigma": 3.5065E-10,
    "eps_depth_divk": 253.290,
    "eps": 21625.917269816575,
    "beta": 0.003874630939,
    "assoc_scheme": "2C",
    "bib_reference": "de Villiers et al. (2011). Doi: 10.1021/ie200521k",
    "ref": "Default/deVilliers2011"
  },
  "PC-SAFT-2": {
    "m": 2.7515,
    "sigma": 3.6189E-10,
    "eps_depth_divk": 259.590,
    "eps": 21156.981578152732,
    "beta": 0.006692,
    "assoc_scheme": "2B",
    "bib_reference": "Tang & Gross (2010). Doi: 10.1016/j.fluid.2010.02.004",
    "ref": "Tang_Gross2010"
  }
}
