{
  "ident": "HEX1OL",
  "formula": "C6H14O",
  "cas_number": "111-27-3",
  "name": "1-HEXANOL",
  "aliases": [
    "1-Hexanol",
    "Hexan-1-ol",
    "n-Hexanol"
  ],
  "mol_weight": 102.1748,
  "critical": {
    "ref": "Default",
    "bib_reference": "webbook.nist.gov",
    "temperature": 610.5,
    "pressure": 3413000.0,
    "compressibility": 0.2602
  },
  "triple": {
    "ref": "Default",
    "bib_reference": "",
    "temperature": 0.0,
    "pressure": 0.0
  },
  "acentric_factor": {
    "ref": "Default",
    "bib_reference": "",
    "acf": 0.57
  },
  "boiling_temperature": {
    "bib_reference": "",
    "temperature": 430.0
  },
  "saturation": {
    "ref": "Default",
    "bib_reference": "",
    "correlation": 1,
    "ant": [
      0.0,
      0.0,
      0.0
    ],
    "Tmin": 0.0,
    "Tmax": 0.0
  },
  "ideal_heat_capacity-1": {
    "ref": "Default",
    "bib_reference": "",
    "correlation": 2,
    "cp": [
      0.0,
      0.0,
      0.0,
      0.0,
      0.0,
      0.0,
      0.0,
      0.0,
      0.0,
      0.0
    ],
    "Tmin": -175.0,
    "Tmax": 1200.0
  },
  "reference_state": {
    "bib_reference": "",
    "enthalpy": 0.0,
    "entropy": 0.0
  },
  "standard_formation_energy": {
    "bib_reference": "",
    "enthalpy": 0.0,
    "gibbs": 0.0
  },
  "rackett_factor": {
    "bib_reference": "10.1016/j.fluid.2016.09.003",
    "Zra": 0.2544
  },
  "dipole_moment": {
    "mu": 0.0,
    "bib_reference": ""
  },
  "quadrupole_moment": {
    "Q": 0.0,
    "bib_reference": ""
  },
  "SRK": {
    "TWU-1": {
      "ref": "tcRK",
      "bib_reference": "10.1016/j.fluid.2016.09.003",
      "correlation": [
        2.0832,
        1,
        0.5783
      ]
    },
    "volume_shift": {
      "ref": "tcRK",
      "bib_reference": "10.1016/j.fluid.2016.09.003",
      "ciA": 2.59066e-05,
      "ciB": 0.0,
      "ciC": 0.0,
      "correlation": 1
    },
    "CPA-1": {
      "ref": "Default/Oliveira2008",
      "bib_reference": "10.1016/j.fluid.2008.02.020",
      "a0": 2.8386E+6,
      "b": 11.313E-2,
      "alphaParams": [0.96959,0.0,0.0],
      "alphaCorr": "Classic",
      "eps": 22759.0,
      "beta": 1.6727E-3,
      "assoc_scheme": "2B"
    }
  },
  "PR": {
    "TWU-1": {
      "ref": "tcPR",
      "bib_reference": "10.1016/j.fluid.2016.09.003",
      "correlation": [
        2.3582,
        1,
        0.4486
      ]
    },
    "volume_shift": {
      "ref": "tcPR",
      "bib_reference": "10.1016/j.fluid.2016.09.003",
      "ciA": 4.1534e-06,
      "ciB": 0.0,
      "ciC": 0.0,
      "correlation": 1
    }
  },
  "PC-SAFT-1": {
    "m": 3.1542,
    "sigma": 3.8188E-10,
    "eps_depth_divk": 277.240,
    "eps": 24495.238319341257,
    "beta": 0.001308996939,
    "assoc_scheme": "2C",
    "bib_reference": "de Villiers et al. (2011). Doi: 10.1021/ie200521k",
    "ref": "Default/deVilliers2011"
  },
  "PC-SAFT-2": {
    "m": 3.5146,
    "sigma": 3.6735E-10,
    "eps_depth_divk": 262.320,
    "eps": 21109.589141229262,
    "beta": 0.005747,
    "assoc_scheme": "2B",
    "bib_reference": "Tang & Gross (2010). Doi: 10.1016/j.fluid.2010.02.004",
    "ref": "Tang_Gross2010"
  }
}
