{
  "ident": "PENT1OL",
  "formula": "C5H12O",
  "cas_number": "71-41-0",
  "InChI": "1S/C5H12O/c1-2-3-4-5-6/h6H,2-5H2,1H3",
  "structure": "C:5;H:12;O:1",
  "name": "1-PENTANOL",
  "aliases": [
    "1-Pentanol",
    "Pentan-1-ol",
    "Pentanol"
  ],
  "mol_weight": 88.1482,
  "critical": {
    "ref": "Default",
    "bib_reference": "webbook.nist.gov,Acentric:www.ethermo.us/Mars264.htm",
    "temperature": 580.0,
    "pressure": 3900000.0,
    "compressibility": 0.2643
  },
  "triple": {
    "ref": "Default",
    "bib_reference": "",
    "temperature": 0.0,
    "pressure": 0.0
  },
  "acentric_factor": {
    "ref": "Default",
    "bib_reference": "",
    "acf": 0.57898
  },
  "boiling_temperature": {
    "bib_reference": "",
    "temperature": 411.0
  },
  "saturation": {
    "ref": "Default",
    "bib_reference": "",
    "correlation": 1,
    "ant": [
      0.0,
      0.0,
      0.0
    ],
    "Tmin": 0.0,
    "Tmax": 0.0
  },
  "ideal_heat_capacity-1": {
    "ref": "Default",
    "bib_reference": "",
    "correlation": 2,
    "cp": [
      0.0,
      0.0,
      0.0,
      0.0,
      0.0,
      0.0,
      0.0,
      0.0,
      0.0,
      0.0
    ],
    "Tmin": -175.0,
    "Tmax": 1200.0
  },
  "reference_state": {
    "enthalpy_bib_reference": "https://webbook.nist.gov",
    "enthalpy": -298.0e3,
    "entropy_bib_reference": "https://webbook.nist.gov : Counsell J.F., 1968",
    "entropy_ref_state": "1ATM",
    "entropy": 401.3
  },
  "rackett_factor": {
    "bib_reference": "10.1016/j.fluid.2016.09.003",
    "Zra": 0.2561
  },
  "dipole_moment": {
    "mu": 0.0,
    "bib_reference": ""
  },
  "quadrupole_moment": {
    "Q": 0.0,
    "bib_reference": ""
  },
  "SRK": {
    "TWU-1": {
      "ref": "tcRK",
      "bib_reference": "10.1016/j.fluid.2016.09.003",
      "correlation": [
        1.6372,
        1,
        0.7717
      ]
    },
    "volume_shift": {
      "ref": "tcRK",
      "bib_reference": "10.1016/j.fluid.2016.09.003",
      "ciA": 1.99375e-05,
      "ciB": 0.0,
      "ciC": 0.0,
      "correlation": 1
    },
    "CPA-1": {
      "ref": "Default/Oliveira2008",
      "bib_reference": "10.1016/j.fluid.2008.02.020",
      "a0": 2.3552E+6,
      "b": 9.7179E-2,
      "alphaParams": [1.0690,0.0,0.0],
      "alphaCorr": "Classic",
      "eps": 18666.0,
      "beta": 2.6724E-3,
      "assoc_scheme": "2B",
      "simplified_rdf": "True"
    }
  },
  "PR": {
    "TWU-1": {
      "ref": "tcPR",
      "bib_reference": "10.1016/j.fluid.2016.09.003",
      "correlation": [
        1.6858,
        1,
        0.6618
      ]
    },
    "volume_shift": {
      "ref": "tcPR",
      "bib_reference": "10.1016/j.fluid.2016.09.003",
      "ciA": 1.4781999999999999e-06,
      "ciB": 0.0,
      "ciC": 0.0,
      "correlation": 1
    }
  },
  "PC-SAFT-1": {
    "m": 3.1488,
    "sigma": 3.635E-10,
    "eps_depth_divk": 261.960,
    "eps": 21246.278906671701,
    "beta": 0.003926990817,
    "assoc_scheme": "2C",
    "bib_reference": "de Villiers et al. (2011). Doi: 10.1021/ie200521k",
    "ref": "Default/deVilliers2011"
  },
  "PC-SAFT-2": {
    "m": 3.626,
    "sigma": 3.4508E-10,
    "eps_depth_divk": 247.280,
    "eps": 18725.00126234291,
    "beta": 0.010319,
    "assoc_scheme": "2B",
    "bib_reference": "Tang & Gross (2010). Doi: 10.1016/j.fluid.2010.02.004",
    "ref": "Tang_Gross2010"
  }
}
