{
  "ident": "PROP1OL",
  "formula": "C3H8O",
  "cas_number": "71-23-8",
  "name": "1-PROPANOL",
  "aliases": [
    "1-Propanol",
    "Propane-1-ol"
  ],
  "mol_weight": 60.095,
  "critical": {
    "ref": "Default",
    "bib_reference": "webbook.nist.gov,Acentric:www.ethermo.us/Mars264.htm",
    "temperature": 536.9,
    "pressure": 5200000.0,
    "compressibility": 0.2543
  },
  "triple": {
    "ref": "Default",
    "bib_reference": "",
    "temperature": 0.0,
    "pressure": 0.0
  },
  "acentric_factor": {
    "ref": "Default",
    "bib_reference": "",
    "acf": 0.623
  },
  "boiling_temperature": {
    "bib_reference": "",
    "temperature": 370.3
  },
  "saturation": {
    "ref": "Default",
    "bib_reference": "",
    "correlation": 1,
    "ant": [
      0.0,
      0.0,
      0.0
    ],
    "Tmin": 0.0,
    "Tmax": 0.0
  },
  "ideal_heat_capacity-1": {
    "ref": "Default",
    "bib_reference": "",
    "correlation": 2,
    "cp": [
      0.0,
      0.0,
      0.0,
      0.0,
      0.0,
      0.0,
      0.0,
      0.0,
      0.0,
      0.0
    ],
    "Tmin": -175.0,
    "Tmax": 1200.0
  },
  "reference_state": {
    "bib_reference": "",
    "enthalpy": 0.0,
    "entropy": 0.0
  },
  "standard_formation_energy": {
    "bib_reference": "",
    "enthalpy": 0.0,
    "gibbs": 0.0
  },
  "rackett_factor": {
    "bib_reference": "10.1016/j.fluid.2016.09.003",
    "Zra": 0.2511
  },
  "dipole_moment": {
    "mu": 0.0,
    "bib_reference": ""
  },
  "quadrupole_moment": {
    "Q": 0.0,
    "bib_reference": ""
  },
  "SRK": {
    "TWU-1": {
      "ref": "tcRK",
      "bib_reference": "10.1016/j.fluid.2016.09.003",
      "correlation": [
        1.3735,
        1,
        0.9941
      ]
    },
    "volume_shift": {
      "ref": "tcRK",
      "bib_reference": "10.1016/j.fluid.2016.09.003",
      "ciA": 1.5880299999999998e-05,
      "ciB": 0.0,
      "ciC": 0.0,
      "correlation": 1
    },
    "CPA-1": {
      "ref": "Default/Oliveira2008",
      "bib_reference": "10.1016/j.fluid.2008.02.020",
      "a0": 1.1424E+6,
      "b": 6.3788E-2,
      "alphaParams": [0.90134 ,0.0,0.0],
      "alphaCorr": "Classic",
      "eps": 21913.0,
      "beta": 7.736E-3,
      "assoc_scheme": "2B"
    }
  },
  "PR": {
    "TWU-1": {
      "ref": "tcPR",
      "bib_reference": "10.1016/j.fluid.2016.09.003",
      "correlation": [
        1.3795,
        1,
        0.8772
      ]
    },
    "volume_shift": {
      "ref": "tcPR",
      "bib_reference": "10.1016/j.fluid.2016.09.003",
      "ciA": 3.2776999999999996e-06,
      "ciB": 0.0,
      "ciC": 0.0,
      "correlation": 1
    }
  },
  "PC-SAFT-1": {
    "m": 2.9537,
    "sigma": 3.2473E-10,
    "eps_depth_divk": 226.360,
    "eps": 20353.970778491494,
    "beta": 0.011938052084,
    "assoc_scheme": "2C",
    "bib_reference": "de Villiers et al. (2011). Doi: 10.1021/ie200521k",
    "ref": "Default/deVilliers2011"
  },
  "PC-SAFT-2": {
    "m": 2.9997,
    "sigma": 3.2522E-10,
    "eps_depth_divk": 233.400,
    "eps": 18930.368489011296,
    "beta": 0.015268,
    "assoc_scheme": "2B",
    "bib_reference": "Tang & Gross (2010). Doi: 10.1016/j.fluid.2010.02.004",
    "ref": "Tang_Gross2010"
  }
}
