{
  "ident": "13BD",
  "formula": "C4H6",
  "cas_number": "106-99-0",
  "InChI": "1S/C4H6/c1-3-4-2/h3-4H,1-2H2",
  "structure": "C:4;H:6",
  "name": "1,3-BUTADIENE",
  "aliases": [
    "1_3-Butadiene"
  ],
  "mol_weight": 54.092,
  "critical": {
    "ref": "Default",
    "bib_reference": "",
    "temperature": 425.0,
    "pressure": 4330000.0,
    "compressibility": 0.27
  },
  "triple": {
    "ref": "Default",
    "bib_reference": "",
    "temperature": 0.0,
    "pressure": 0.0
  },
  "acentric_factor": {
    "ref": "Default",
    "bib_reference": "",
    "acf": 0.195
  },
  "boiling_temperature": {
    "bib_reference": "",
    "temperature": 268.7
  },
  "saturation": {
    "ref": "Default",
    "bib_reference": "",
    "correlation": 2,
    "ant": [
      0.0,
      0.0,
      0.0
    ],
    "Tmin": 0.0,
    "Tmax": 0.0
  },
  "ideal_heat_capacity-1": {
    "ref": "Default",
    "bib_reference": "",
    "correlation": 4,
    "cp": [
      -1.687,
      0.3419,
      -0.000234,
      6.335e-08,
      0.0,
      0.0,
      0.0,
      0.0,
      0.0,
      0.0
    ],
    "Tmin": 0.0,
    "Tmax": 0.0
  },
  "reference_state": {
    "enthalpy_bib_reference": "https://webbook.nist.gov : Prosen, Maron, et al., 1951",
    "enthalpy_ref_state": "1ATM",
    "enthalpy": 108.8e3,
    "entropy_bib_reference": "HSC Chemistry 9",
    "entropy_ref_state": "0BAR",
    "entropy": 278.780
  },
  "standard_formation_energy": {
    "bib_reference": "ISBN: 978-0070116825",
    "enthalpy": 110000.0,
    "gibbs": 150600.0
  },
  "rackett_factor": {
    "bib_reference": "",
    "Zra": 0.2675
  },
  "dipole_moment": {
    "mu": 0.0,
    "bib_reference": ""
  },
  "quadrupole_moment": {
    "Q": 0.0,
    "bib_reference": ""
  },
  "SRK": {
    "TWU-1": {
      "ref": "tcRK",
      "bib_reference": "10.1016/j.fluid.2016.09.003",
      "correlation": [
        0.2223,
        0.8584,
        2.4193
      ]
    },
    "volume_shift": {
      "ref": "tcRK",
      "bib_reference": "10.1016/j.fluid.2016.09.003",
      "ciA": 1.1208199999999999e-05,
      "ciB": 0.0,
      "ciC": 0.0,
      "correlation": 1
    }
  },
  "PR": {
    "TWU-1": {
      "ref": "tcPR",
      "bib_reference": "10.1016/j.fluid.2016.09.003",
      "correlation": [
        0.1618,
        0.8592,
        2.4088
      ]
    },
    "volume_shift": {
      "ref": "tcPR",
      "bib_reference": "10.1016/j.fluid.2016.09.003",
      "ciA": -1.6140000000000001e-06,
      "ciB": 0.0,
      "ciC": 0.0,
      "correlation": 1
    }
  }
}
