{
  "ident": "ALLENE",
  "formula": "C3H4",
  "cas_number": "463-49-0",
  "InChI": "1S/C3H4/c1-3-2/h1-2H2",
  "structure": "C:3;H:4",
  "name": "PROPADIENE",
  "aliases": [
    "Allene",
    "Propadiene",
    "R2250",
    "1_2-Propadiene"
  ],
  "mol_weight": 40.065,
  "critical": {
    "ref": "Default",
    "bib_reference": "",
    "temperature": 393.85,
    "pressure": 5248600.0,
    "compressibility": 0.2597
  },
  "triple": {
    "ref": "Default",
    "bib_reference": "",
    "temperature": 0.0,
    "pressure": 0.0
  },
  "acentric_factor": {
    "ref": "Default",
    "bib_reference": "",
    "acf": 0.12
  },
  "boiling_temperature": {
    "bib_reference": "",
    "temperature": 238.65
  },
  "saturation": {
    "ref": "Default",
    "bib_reference": "",
    "correlation": 1,
    "ant": [
      6.5361,
      1054.72,
      -77.08
    ],
    "Tmin": 174.0,
    "Tmax": 257.0
  },
  "ideal_heat_capacity-1": {
    "ref": "Default",
    "bib_reference": "",
    "correlation": 4,
    "cp": [
      9.906,
      0.1977,
      -0.0001182,
      2.782e-08,
      0.0,
      0.0,
      0.0,
      0.0,
      0.0,
      0.0
    ],
    "Tmin": 0.0,
    "Tmax": 0.0
  },
  "reference_state": {
    "enthalpy_bib_reference": "HSC Chemistry 9",
    "enthalpy": 191.2e3,
    "entropy_bib_reference": "HSC Chemistry 9",
    "entropy_ref_state": "1BAR",
    "entropy": 244.198
  },
  "rackett_factor": {
    "bib_reference": "10.1016/j.fluid.2016.09.003",
    "Zra": 0.2677
  },
  "dipole_moment": {
    "mu": 0.0,
    "bib_reference": ""
  },
  "quadrupole_moment": {
    "Q": 0.0,
    "bib_reference": ""
  },
  "SRK": {
    "TWU-1": {
      "ref": "tcRK",
      "bib_reference": "10.1016/j.fluid.2016.09.003",
      "correlation": [
        0.4198,
        0.7256,
        1.0307
      ]
    },
    "volume_shift": {
      "ref": "tcRK",
      "bib_reference": "10.1016/j.fluid.2016.09.003",
      "ciA": 1.1899699999999999e-05,
      "ciB": 0.0,
      "ciC": 0.0,
      "correlation": 1
    }
  },
  "PR": {
    "TWU-1": {
      "ref": "tcPR",
      "bib_reference": "10.1016/j.fluid.2016.09.003",
      "correlation": [
        1.0853,
        0.4788,
        0.4593
      ]
    },
    "volume_shift": {
      "ref": "tcPR",
      "bib_reference": "10.1016/j.fluid.2016.09.003",
      "ciA": 1.923e-06,
      "ciB": 0.0,
      "ciC": 0.0,
      "correlation": 1
    }
  }
}
