{
  "ident": "NH3",
  "formula": "NH3",
  "cas_number": "7664-41-7",
  "name": "AMMONIA",
  "aliases": [
    "Ammonia",
    "R717"
  ],
  "mol_weight": 17.031,
  "critical": {
    "ref": "Default",
    "bib_reference": "",
    "temperature": 405.6,
    "pressure": 11470000.0,
    "compressibility": 0.242
  },
  "triple": {
    "ref": "Default",
    "bib_reference": "",
    "temperature": 0.0,
    "pressure": 0.0
  },
  "acentric_factor": {
    "ref": "Default",
    "bib_reference": "",
    "acf": 0.25
  },
  "boiling_temperature": {
    "bib_reference": "",
    "temperature": 239.7
  },
  "saturation": {
    "ref": "Default",
    "bib_reference": "",
    "correlation": 1,
    "ant": [
      16.9481,
      2132.5,
      -32.98
    ],
    "Tmin": 179.0,
    "Tmax": 261.0
  },
  "ideal_heat_capacity-1": {
    "ref": "Default",
    "bib_reference": "",
    "correlation": 2,
    "cp": [
      -2.202606,
      2.010317,
      -0.000650061,
      2.373264e-06,
      -1.597595e-09,
      3.761739e-13,
      0.990447,
      0.0,
      0.0,
      0.0
    ],
    "Tmin": -175.0,
    "Tmax": 1200.0
  },
  "reference_state": {
    "bib_reference": "https://webbook.nist.gov",
    "enthalpy": -45900,
    "entropy": 192.77
  },
  "standard_formation_energy": {
    "bib_reference": "",
    "enthalpy": 0.0,
    "gibbs": 0.0
  },
  "rackett_factor": {
    "bib_reference": "",
    "Zra": 0.2465
  },
  "dipole_moment": {
    "mu": 0.0,
    "bib_reference": ""
  },
  "quadrupole_moment": {
    "Q": 0.0,
    "bib_reference": ""
  },
  "melting_curve": {
    "bib_reference": "DOI: 10.1063/1.555579",
    "ref": "DEFAULT",
    "correlation": "M1",
    "triple_temperature": 195.49,
    "maximum_temperature": 10000.0,
    "reducing_pressure": 1.000000E+06,
    "n_coeff": 1,
    "coeff": [
      0.0060615,
      0.0,
      0.0,
      0.0,
      0.0,
      0.0
    ],
    "exponents": [
      0.0,
      0.0,
      0.0,
      0.0,
      0.0,
      0.0
    ]
  },
  "sublimation_curve": {
    "bib_reference": "DOI: 10.1016/j.pss.2009.09.011",
    "ref": "DEFAULT",
    "correlation": "S2",
    "triple_temperature": 195.49,
    "minimum_temperature": 0.0,
    "reducing_pressure": 1.000000E+06,
    "n_coeff": 5,
    "coeff": [
      13.6395,
      -3.537e3,
      -3.310e4,
      1.742e6,
      -2.995e7,
      0.0
    ],
    "exponents": [
      0.0,
      -1.0,
      -2.0,
      -3.0,
      -4.0,
      0.0
    ]
  },
  "SRK": {
    "TWU-1": {
      "ref": "tcRK",
      "bib_reference": "10.1016/j.fluid.2016.09.003",
      "correlation": [
        0.2981,
        0.8651,
        2.3245
      ]
    },
    "MC-1": {
      "ref": "Chapoy2005",
      "bib_reference": "Thesis by Antonin Chapoy (2005)",
      "correlation": [
        0.916,
        -0.369,
        0.417
      ]
    },
    "volume_shift": {
      "ref": "tcRK",
      "bib_reference": "10.1016/j.fluid.2016.09.003",
      "ciA": 8.639799999999998e-06,
      "ciB": 0.0,
      "ciC": 0.0,
      "correlation": 1
    },
    "CPA-1": {
      "ref": "Default/SINTEF",
      "bib_reference": "",
      "a0": 3.73160e+05,
      "b": 2.07666e-02,
      "alphaParams": [7.17324e-1,0.0,0.0],
      "alphaCorr": "Classic",
      "eps": 7.60835e+03,
      "beta": 7.93725e-04,
      "assoc_scheme": "2B"
    }
  },
  "PR": {
    "TWU-1": {
      "ref": "tcPR",
      "bib_reference": "10.1016/j.fluid.2016.09.003",
      "correlation": [
        0.2274,
        0.8645,
        2.332
      ]
    },
    "MC-1": {
      "ref": "Chapoy2005",
      "bib_reference": "Thesis by Antonin Chapoy (2005)",
      "correlation": [
        0.748,
        -0.025,
        0.001
      ]
    },
    "volume_shift": {
      "ref": "tcPR",
      "bib_reference": "10.1016/j.fluid.2016.09.003",
      "ciA": 4.0303e-06,
      "ciB": 0.0,
      "ciC": 0.0,
      "correlation": 1
    }
  },
  "PC-SAFT-1": {
    "m": 2.25807,
    "sigma": 2.37802E-10,
    "eps_depth_divk": 126.868,
    "eps": 11032.6000,
    "beta": 0.20479,
    "assoc_scheme": "3B",
    "bib_reference": "SINTEF Energy Research",
    "ref": "Default/InHouse"
  },
  "SAFTVRMIE-1": {
    "m": 1.0,
    "sigma": 3.3309E-10,
    "eps_depth_divk": 323.70,
    "lambda_a": 6.0000,
    "lambda_r": 36.832,
    "mass": 2.828E-26,
    "eps": 1105.0,
    "beta": 560.73E-30,
    "assoc_scheme": "4B",
    "fh_order": 0,
    "bib_reference": "Dufal (2015) - 10.1080/00268976.2015.1029027",
    "ref": "DEFAULT/Dufal2015"
  }
}
