{
  "ident": "AR",
  "formula": "AR",
  "cas_number": "7440-37-1",
  "name": "ARGON",
  "aliases": [
    "Argon"
  ],
  "mol_weight": 39.948,
  "critical": {
    "ref": "Default",
    "bib_reference": "",
    "temperature": 150.8,
    "pressure": 4873700.0,
    "compressibility": 0.291
  },
  "triple": {
    "ref": "Default",
    "bib_reference": "",
    "temperature": 0.0,
    "pressure": 0.0
  },
  "acentric_factor": {
    "ref": "Default",
    "bib_reference": "",
    "acf": -0.004
  },
  "boiling_temperature": {
    "bib_reference": "",
    "temperature": 87.3
  },
  "saturation": {
    "ref": "Default",
    "bib_reference": "",
    "correlation": 1,
    "ant": [
      15.233,
      700.51,
      -5.84
    ],
    "Tmin": 81.0,
    "Tmax": 94.0
  },
  "ideal_heat_capacity-1": {
    "ref": "Default",
    "bib_reference": "",
    "correlation": 1,
    "cp": [
      4.969,
      -7.67e-06,
      1.234e-08,
      0.0,
      0.0,
      0.0,
      0.0,
      0.0,
      0.0,
      0.0
    ],
    "Tmin": 0.0,
    "Tmax": 0.0
  },
  "reference_state": {
    "bib_reference": "",
    "enthalpy": 0.0,
    "entropy": 0.0
  },
  "standard_formation_energy": {
    "bib_reference": "",
    "enthalpy": 0.0,
    "gibbs": 0.0
  },
  "rackett_factor": {
    "bib_reference": "",
    "Zra": 0.3085
  },
  "dipole_moment": {
    "mu": 0.0,
    "bib_reference": ""
  },
  "quadrupole_moment": {
    "Q": 0.0,
    "bib_reference": ""
  },
  "melting_curve": {
    "bib_reference": "DOI: 10.1063/1.556037",
    "ref": "DEFAULT",
    "correlation": "ML-1",
    "triple_temperature": 83.8058,
    "maximum_temperature": 700.0,
    "reducing_pressure": 6.889100E+04,
    "reducing_temperature": 83.8058,
    "n_coeff": 3,
    "n_coeff_1": 1,
    "n_coeff_2": 0,
    "n_coeff_3": 0,
    "coeff": [
      1.0,
      -7476.26651,
      9959.06125,
      0.0,
      0.0,
      0.0
    ],
    "exponents": [
      0.0,
      1.05,
      1.275,
      0.0,
      0.0,
      0.0
    ]
  },
  "sublimation_curve": {
    "bib_reference": "Lemmon, E.W. (2002)",
    "ref": "DEFAULT",
    "correlation": "SL-3",
    "triple_temperature": 83.8058,
    "minimum_temperature": 0.0,
    "reducing_pressure": 6.889100E+04,
    "reducing_temperature": 83.8058,
    "n_coeff": 1,
    "n_coeff_1": 0,
    "n_coeff_2": 1,
    "n_coeff_3": 0,
    "coeff": [
      -11.1307,
      0.0,
      0.0,
      0.0,
      0.0,
      0.0
    ],
    "exponents": [
      1.0,
      0.0,
      0.0,
      0.0,
      0.0,
      0.0
    ]
  },
  "SRK": {
    "TWU-1": {
      "ref": "tcRK",
      "bib_reference": "10.1016/j.fluid.2016.09.003",
      "correlation": [
        0.2023,
        0.9086,
        1.8129
      ]
    },
    "volume_shift": {
      "ref": "tcRK",
      "bib_reference": "10.1016/j.fluid.2016.09.003",
      "ciA": 8.728e-07,
      "ciB": 0.0,
      "ciC": 0.0,
      "correlation": 1
    }
  },
  "PR": {
    "TWU-1": {
      "ref": "tcPR",
      "bib_reference": "10.1016/j.fluid.2016.09.003",
      "correlation": [
        0.1228,
        0.9045,
        1.8539
      ]
    },
    "MC-1": {
      "ref": "Default",
      "bib_reference": "Unknown",
      "correlation": [
        0.397483,
        -0.282393,
        0.796288
      ]
    },
    "volume_shift": {
      "ref": "tcPR",
      "bib_reference": "10.1016/j.fluid.2016.09.003",
      "ciA": -3.2938999999999995e-06,
      "ciB": 0.0,
      "ciC": 0.0,
      "correlation": 1
    }
  },
  "PC-SAFT-1": {
    "m": 0.9285,
    "sigma": 3.4784E-10,
    "eps_depth_divk": 122.230,
    "eps": 0.0,
    "beta": 0.0,
    "assoc_scheme": "None",
    "bib_reference": "Kontogeorgis & Folas (2010). Doi: 10.1002/9780470747537",
    "ref": "Default/Kontogeorgis_Folas2001"
  },
  "SAFTVRMIE-1": {
    "m": 1.000,
    "sigma": 3.4100E-10,
    "eps_depth_divk": 118.7000,
    "lambda_a": 6.0000,
    "lambda_r": 12.2600,
    "mass": 6.6335E-26,
    "eps": 0.0000,
    "beta": 0.0000,
    "assoc_scheme": "None",
    "fh_order": 0,
    "bib_reference": "Unpublished (as of 08/2018) parameters from G. Jackon's group",
    "ref": "DEFAULT"
  }
}
