{
  "ident": "BENZENE",
  "formula": "C6H6",
  "cas_number": "71-43-2",
  "InChI": "1S/C6H6/c1-2-4-6-5-3-1/h1-6H",
  "structure": "C:6;H:6",
  "name": "BENZENE",
  "aliases": [
    "Benzene"
  ],
  "mol_weight": 78.114,
  "critical": {
    "ref": "Default",
    "bib_reference": "",
    "temperature": 562.1,
    "pressure": 4894000.0,
    "compressibility": 0.271
  },
  "triple": {
    "ref": "Default",
    "bib_reference": "",
    "temperature": 0.0,
    "pressure": 0.0
  },
  "acentric_factor": {
    "ref": "Default",
    "bib_reference": "",
    "acf": 0.212
  },
  "boiling_temperature": {
    "bib_reference": "",
    "temperature": 353.3
  },
  "saturation": {
    "ref": "Default",
    "bib_reference": "",
    "correlation": 1,
    "ant": [
      15.9008,
      2788.51,
      -52.36
    ],
    "Tmin": 280.0,
    "Tmax": 377.0
  },
  "ideal_heat_capacity-1": {
    "ref": "Default",
    "bib_reference": "",
    "correlation": 2,
    "cp": [
      84.467062,
      -0.51356,
      0.00324874,
      -1.543913e-06,
      3.65037e-10,
      -2.48222e-14,
      5.631041,
      0.0,
      0.0,
      0.0
    ],
    "Tmin": -20.0,
    "Tmax": 1200.0
  },
  "reference_state": {
    "enthalpy_bib_reference": "https://webbook.nist.gov : Roux, Temprado, et al., 2008",
    "enthalpy": 82.9e3,
    "entropy_bib_reference": "HSC Chemistry 9",
    "entropy_ref_state": "1BAR",
    "entropy": 269.307
  },
  "rackett_factor": {
    "bib_reference": "",
    "Zra": 0.2698
  },
  "dipole_moment": {
    "mu": 0.0,
    "bib_reference": ""
  },
  "quadrupole_moment": {
    "Q": 0.0,
    "bib_reference": ""
  },
  "SRK": {
    "MC-1": {
      "ref": "Chapoy2005",
      "bib_reference": "Thesis by Antonin Chapoy (2005)",
      "correlation": [
        0.84,
        -0.389,
        0.917
      ]
    },
    "TWU-1": {
      "ref": "tcRK",
      "bib_reference": "10.1016/j.fluid.2016.09.003",
      "correlation": [
        0.1823,
        0.8448,
        2.6354
      ]
    },
    "volume_shift": {
      "ref": "tcRK",
      "bib_reference": "10.1016/j.fluid.2016.09.003",
      "ciA": 1.35115e-05,
      "ciB": 0.0,
      "ciC": 0.0,
      "correlation": 1
    }
  },
  "PR": {
    "MC-1": {
      "ref": "Chapoy2005",
      "bib_reference": "Thesis by Antonin Chapoy (2005)",
      "correlation": [
        0.701,
        -0.252,
        0.976
      ]
    },
    "TWU-1": {
      "ref": "tcPR",
      "bib_reference": "10.1016/j.fluid.2016.09.003",
      "correlation": [
        0.1261,
        0.846,
        2.6137
      ]
    },
    "volume_shift": {
      "ref": "tcPR",
      "bib_reference": "10.1016/j.fluid.2016.09.003",
      "ciA": -1.3914e-06,
      "ciB": 0.0,
      "ciC": 0.0,
      "correlation": 1
    }
  },
  "PC-SAFT-1": {
    "m": 2.4653,
    "sigma": 3.6478E-10,
    "eps_depth_divk": 287.350,
    "eps": 0.0,
    "beta": 0.0,
    "assoc_scheme": "None",
    "bib_reference": "Kontogeorgis & Folas (2010). Doi: 10.1002/9780470747537",
    "ref": "Default/Kontogeorgis_Folas2010"
  },
  "PC-SAFT-2": {
    "m": 2.2463,
    "sigma": 3.7852E-10,
    "eps_depth_divk": 296.24,
    "eps": 0.0,
    "beta": 0.0,
    "assoc_scheme": "None",
    "Q": 5.5907,
    "bib_reference": "Gross 2005, doi: 10.1002/aic.10502",
    "ref": "Gross2005ADJQ"
  }
}
