{
  "ident": "CO2",
  "formula": "CO2",
  "cas_number": "124-38-9",
  "name": "CARBON DIOXIDE",
  "aliases": [
    "CarbonDioxide",
    "R744"
  ],
  "mol_weight": 44.01,
  "critical": {
    "ref": "Default",
    "bib_reference": "",
    "temperature": 304.2,
    "pressure": 7376500.0,
    "compressibility": 0.274
  },
  "triple": {
    "ref": "Default",
    "bib_reference": "",
    "temperature": 0.0,
    "pressure": 0.0
  },
  "acentric_factor": {
    "ref": "Default",
    "bib_reference": "",
    "acf": 0.225
  },
  "boiling_temperature": {
    "bib_reference": "",
    "temperature": 194.7
  },
  "saturation": {
    "ref": "Default",
    "bib_reference": "",
    "correlation": 1,
    "ant": [
      22.5898,
      3103.39,
      -0.16
    ],
    "Tmin": 154.0,
    "Tmax": 204.0
  },
  "ideal_heat_capacity-1": {
    "ref": "Default",
    "bib_reference": "",
    "correlation": 2,
    "cp": [
      11.113744,
      0.479107,
      0.000762159,
      -3.59392e-07,
      8.4744e-11,
      -5.7752e-15,
      2.71918,
      0.0,
      0.0,
      0.0
    ],
    "Tmin": -175.0,
    "Tmax": 1200.0
  },
  "ideal_heat_capacity-2": {
    "ref": "",
    "bib_reference": "",
    "correlation": 5,
    "cp": [
      0.567998955,
      0.00125397835,
      -7.65547666e-07,
      1.80606165e-10,
      -3104.73875,
      0.0,
      0.0,
      0.0,
      0.0,
      0.0
    ],
    "Tmin": 50.0,
    "Tmax": 5000.0
  },
  "reference_state": {
    "bib_reference": "",
    "enthalpy": 0.0,
    "entropy": 0.0
  },
  "standard_formation_energy": {
    "bib_reference": "",
    "enthalpy": 0.0,
    "gibbs": 0.0
  },
  "rackett_factor": {
    "bib_reference": "",
    "Zra": 0.2722
  },
  "dipole_moment": {
    "mu": 0.0,
    "bib_reference": ""
  },
  "quadrupole_moment": {
    "Q": 4.4,
    "bib_reference": "Gross 2005, doi: 10.1002/aic.10502"
  },
  "melting_line": {
    "bib_reference": "DOI: 10.1063/1.555991",
    "correlation": "M1",
    "minimum_temperature": 216.592,
    "maximum_temperature": 1100.0,
    "reducing_temperature": 216.592,
    "reducing_pressure": 517.95,
    "n_coeff": 3,
    "coeff": [
      1.0,
      1955.539,
      2055.4593,
      0.0,
      0.0,
      0.0
    ],
    "exponents": [
      0.0,
      1.0,
      2.0,
      0.0,
      0.0,
      0.0
    ]
  },
  "sublimation_line": {
    "bib_reference": "DOI: 10.1063/1.555991",
    "correlation": "S3",
    "minimum_temperature": 0.0,
    "maximum_temperature": 216.592,
    "reducing_temperature": 216.592,
    "reducing_pressure": 517.95,
    "n_coeff": 3,
    "coeff": [
      -14.740846,
      2.4327015,
      -5.3061778,
      0.0,
      0.0,
      0.0
    ],
    "exponents": [
      1.0,
      1.9,
      2.9,
      0.0,
      0.0,
      0.0
    ]
  },
  "SRK": {
    "TWU-1": {
      "ref": "tcRK",
      "bib_reference": "10.1016/j.fluid.2016.09.003",
      "correlation": [
        0.2807,
        0.8685,
        2.2778
      ]
    },
    "MC-1": {
      "ref": "Chapoy2005",
      "bib_reference": "Thesis by Antonin Chapoy (2005)",
      "correlation": [
        0.867,
        -0.674,
        2.471
      ]
    },
    "volume_shift": {
      "ref": "tcRK",
      "bib_reference": "10.1016/j.fluid.2016.09.003",
      "ciA": 4.158199999999999e-06,
      "ciB": 0.0,
      "ciC": 0.0,
      "correlation": 1
    },
    "CPA-1": {
      "ref": "Default/Kontogeorgis-Folas2010",
      "bib_reference": "10.1002/9780470747537",
      "a0": 3.5079E5,
      "b": 2.72E-02,
      "alphaParams": [0.7602,0.0,0.0],
      "alphaCorr": "Classic",
      "eps": 0.0,
      "beta": 0.0,
      "assoc_scheme": "NONE"
    },
    "CPA-2": {
      "ref": "SINTEF",
      "bib_reference": "",
      "a0": 3.5079E5,
      "b": 2.72E-02,
      "alphaParams": [0.7602,0.0,0.0],
      "alphaCorr": "Classic",
      "eps": 0.0,
      "beta": 0.05,
      "assoc_scheme": "1EA"
    },
    "CPA-3": {
      "ref": "SINTEF2",
      "bib_reference": "",
      "a0": 2.99377508e+05,
      "b": 2.68729432e-02,
      "alphaParams": [4.62138711e-01,0.0,0.0],
      "alphaCorr": "Classic",
      "eps": 1.28604049e+04,
      "beta": 9.08545617e-03,
      "assoc_scheme": "1"
    }
  },
  "PR": {
    "TWU-1": {
      "ref": "tcPR",
      "bib_reference": "10.1016/j.fluid.2016.09.003",
      "correlation": [
        0.1783,
        0.859,
        2.4107
      ]
    },
    "MC-1": {
      "ref": "Default",
      "bib_reference": "Unknown",
      "correlation": [
        0.704606,
        -0.314862,
        1.89083
      ]
    },
    "MC-2": {
      "ref": "Chapoy2005",
      "bib_reference": "Thesis by Antonin Chapoy (2005)",
      "correlation": [
        0.705,
        -0.315,
        1.89
      ]
    },
    "volume_shift": {
      "ref": "tcPR",
      "bib_reference": "10.1016/j.fluid.2016.09.003",
      "ciA": -1.1368e-06,
      "ciB": 0.0,
      "ciC": 0.0,
      "correlation": 1
    }
  },
  "PC-SAFT-1": {
    "m": 2.0729,
    "sigma": 2.7852E-10,
    "eps_depth_divk": 169.210,
    "eps": 0.0,
    "beta": 0.0,
    "assoc_scheme": "None",
    "bib_reference": "Kontogeorgis & Folas (2010). Doi: 10.1002/9780470747537",
    "ref": "Default/Kontogeorgis_Folas2001"
  },
  "PC-SAFT-2": {
    "m": 2.58239,
    "sigma": 2.56106E-10,
    "eps_depth_divk": 151.691,
    "eps": 0.0,
    "beta": 0.0,
    "assoc_scheme": "None",
    "bib_reference": "Tang & Gross (2010). Doi: 10.1016/j.fluid.2010.02.004",
    "ref": "Tang_Gross2010"
  },
  "PC-SAFT-3": {
    "m": 1.72897,
    "sigma": 2.76102E-10,
    "eps_depth_divk": 83.7215,
    "eps": 9256.5000,
    "beta": 0.171605,
    "assoc_scheme": "3B",
    "bib_reference": "Smith (2017) MSc thesis, Doi: 10019.1/101071",
    "ref": "Smith2017"
  },
  "PC-SAFT-4": {
    "m": 1.5131,
    "sigma": 3.1869E-10,
    "eps_depth_divk": 163.33,
    "eps": 0.0,
    "beta": 0.0,
    "assoc_scheme": "None",
    "bib_reference": "Gross 2005, doi: 10.1002/aic.10502",
    "ref": "Gross2005"
  },
  "PC-SAFT-5": {
    "m": 1.6298,
    "sigma": 3.0867E-10,
    "eps_depth_divk": 163.34,
    "eps": 0.0,
    "beta": 0.0,
    "assoc_scheme": "None",
    "Q": 3.9546,
    "bib_reference": "Gross 2005, doi: 10.1002/aic.10502",
    "ref": "Gross2005ADJQ"
  },
  "SAFTVRMIE-1": {
    "m": 1.500,
    "sigma": 3.1916E-10,
    "eps_depth_divk": 231.8800,
    "lambda_a": 5.1646,
    "lambda_r": 27.5570,
    "mass": 0.0000E+00,
    "eps": 0.0000,
    "beta": 0.0000,
    "assoc_scheme": "None",
    "fh_order": 0,
    "bib_reference": "Lafitte et al. 2013, doi: 10.1063/1.4819786",
    "ref": "DEFAULT"
  }
}
