{
  "ident": "CO",
  "formula": "CO",
  "cas_number": "630-08-0",
  "InChI": "1S/CO/c1-2",
  "structure": "C:1;O:1",
  "name": "CARBON MONOXIDE",
  "aliases": [
    "CarbonMonoxide"
  ],
  "mol_weight": 28.01,
  "critical": {
    "ref": "Default",
    "bib_reference": "",
    "temperature": 132.85,
    "pressure": 3494000.0,
    "compressibility": 0.292
  },
  "triple": {
    "ref": "Default",
    "bib_reference": "",
    "temperature": 0.0,
    "pressure": 0.0
  },
  "acentric_factor": {
    "ref": "Default",
    "bib_reference": "",
    "acf": 0.045
  },
  "boiling_temperature": {
    "bib_reference": "",
    "temperature": 81.66
  },
  "saturation": {
    "ref": "Default",
    "bib_reference": "",
    "correlation": 1,
    "ant": [
      15.414,
      671.7631,
      -5.154
    ],
    "Tmin": 69.73,
    "Tmax": 88.08
  },
  "ideal_heat_capacity-1": {
    "ref": "Default",
    "bib_reference": "",
    "correlation": 6,
    "cp": [
      1.1612,
      -0.0011615,
      3.5086e-06,
      -3.8648e-09,
      1.5287e-12,
      0.0,
      0.0,
      0.0,
      0.0,
      0.0
    ],
    "Tmin": 50.0,
    "Tmax": 1000.0
  },
  "reference_state": {
    "bib_reference": "",
    "enthalpy": 0.0,
    "entropy": 0.0
  },
  "standard_formation_energy": {
    "bib_reference": "ISBN: 978-0070116825",
    "enthalpy": -110530.0,
    "gibbs": -137160.0
  },
  "rackett_factor": {
    "bib_reference": "",
    "Zra": 0.2896
  },
  "dipole_moment": {
    "mu": 0.0,
    "bib_reference": ""
  },
  "quadrupole_moment": {
    "Q": 0.0,
    "bib_reference": ""
  },
  "melting_curve": {
    "bib_reference": "DOI: 10.1016/0021-9614(82)90044-1",
    "ref": "DEFAULT",
    "correlation": "ML-1",
    "triple_temperature": 68.16,
    "maximum_temperature": 1000.0,
    "reducing_pressure": 1.000000E+06,
    "reducing_temperature": 1.0,
    "n_coeff": 2,
    "n_coeff_1": 2,
    "n_coeff_2": 0,
    "n_coeff_3": 0,
    "coeff": [
      -142.941,
      0.0195608,
      0.0,
      0.0,
      0.0,
      0.0
    ],
    "exponents": [
      0.0,
      2.10747,
      0.0,
      0.0,
      0.0,
      0.0
    ]
  },
  "sublimation_curve": {
    "bib_reference": "DOI: 10.1007/978-1-4613-9856-1_76",
    "ref": "DEFAULT",
    "correlation": "SL-2",
    "triple_temperature": 68.16,
    "minimum_temperature": 61.55,
    "reducing_pressure": 1.000000E+06,
    "reducing_temperature": 1.0,
    "n_coeff": 4,
    "n_coeff_1": 4,
    "n_coeff_2": 0,
    "n_coeff_3": 0,
    "coeff": [
      7.94524,
      -7.48151e2,
      -5.8433e3,
      3.9385e4,
      0.0,
      0.0
    ],
    "exponents": [
      0.0,
      -1.0,
      -2.0,
      -3.0,
      0.0,
      0.0
    ]
  },
  "SRK": {
    "TWU-1": {
      "ref": "tcRK",
      "bib_reference": "10.1016/j.fluid.2016.09.003",
      "correlation": [
        0.1625,
        0.8778,
        2.1562
      ]
    },
    "volume_shift": {
      "ref": "tcRK",
      "bib_reference": "10.1016/j.fluid.2016.09.003",
      "ciA": 1.4068e-06,
      "ciB": 0.0,
      "ciC": 0.0,
      "correlation": 1
    }
  },
  "PR": {
    "TWU-1": {
      "ref": "tcPR",
      "bib_reference": "10.1016/j.fluid.2016.09.003",
      "correlation": [
        0.0983,
        0.8777,
        2.1568
      ]
    },
    "MC-1": {
      "ref": "Default",
      "bib_reference": "10.1021/ie001134o",
      "correlation": [
        0.705,
        -0.3185,
        1.9012
      ]
    },
    "volume_shift": {
      "ref": "tcPR",
      "bib_reference": "10.1016/j.fluid.2016.09.003",
      "ciA": -3.6761e-06,
      "ciB": 0.0,
      "ciC": 0.0,
      "correlation": 1
    }
  }
}
