{
  "ident": "CL2",
  "formula": "CL2",
  "cas_number": "7782-50-5",
  "name": "CHLORINE",
  "aliases": [
    "CHLORINE"
  ],
  "mol_weight": 70.905,
  "critical": {
    "ref": "Default",
    "bib_reference": "Le Guennec et al. (2016): 10.1016/j.fluid.2016.09.003",
    "temperature": 417.15,
    "pressure": 77.10e5,
    "compressibility": 0.275
  },
  "triple": {
    "ref": "Default",
    "bib_reference": "",
    "temperature": 0.0,
    "pressure": 0.0
  },
  "acentric_factor": {
    "ref": "Default",
    "bib_reference": "Le Guennec et al. (2016): 10.1016/j.fluid.2016.09.003",
    "acf": 0.0688
  },
  "boiling_temperature": {
    "bib_reference": "Poling et al. (2001): 978-0-07-011682-5",
    "temperature": 239.12
  },
  "saturation": {
    "ref": "Default",
    "bib_reference": "Poling et al. (2001): 978-0-07-011682-5",
    "correlation": 1,
    "ant": [
      4.06280,
      861.3400,
      -26.82
    ],
    "Tmin": 176.31,
    "Tmax": 255.79
  },
  "ideal_heat_capacity-1": {
    "ref": "Default",
    "bib_reference": "Poling et al. (2001): 978-0-07-011682-5",
    "correlation": 8,
    "cp": [
      3.0560,
      5.3708e-3,
      -0.8098e-5,
      0.5693e-8,
      -0.15256e-11,
      0.0,
      0.0,
      0.0,
      0.0,
      0.0
    ],
    "Tmin": 50.0,
    "Tmax": 1000.0
  },
  "reference_state": {
    "bib_reference": "",
    "enthalpy": 0.0,
    "entropy": 0.0
  },
  "standard_formation_energy": {
    "bib_reference": "",
    "enthalpy": 0.0,
    "gibbs": 0.0
  },
  "rackett_factor": {
    "bib_reference": "Le Guennec et al. (2016): 10.1016/j.fluid.2016.09.003",
    "Zra": 0.2774
  },
  "dipole_moment": {
    "mu": 0.0,
    "bib_reference": ""
  },
  "quadrupole_moment": {
    "Q": 4.1,
    "bib_reference": "Gross (2005), doi: 10.1002/aic.10502"
  },
  "SRK": {
    "TWU-1": {
      "ref": "tcRK",
      "bib_reference": "Le Guennec et al. (2016): 10.1016/j.fluid.2016.09.003",
      "correlation": [
        0.3923,
        0.8524,
        1.2102
      ]
    },
    "volume_shift": {
      "ref": "tcRK",
      "bib_reference": "Le Guennec et al. (2016): 10.1016/j.fluid.2016.09.003",
      "ciA": 5.7792e-06,
      "ciB": 0.0,
      "ciC": 0.0,
      "correlation": 1
    }
  },
  "PR": {
    "TWU-1": {
      "ref": "tcPR",
      "bib_reference": "Le Guennec et al. (2016): 10.1016/j.fluid.2016.09.003",
      "correlation": [
        0.7082,
        0.8812,
        0.6306
      ]
    },
    "volume_shift": {
      "ref": "tcPR",
      "bib_reference": "Le Guennec et al. (2016): 10.1016/j.fluid.2016.09.003",
      "ciA": -1.4823e-06,
      "ciB": 0.0,
      "ciC": 0.0,
      "correlation": 1
    }
  },
  "PC-SAFT-1": {
    "m": 1.3934,
    "sigma": 3.5339E-10,
    "eps_depth_divk": 270.49,
    "eps": 0.0,
    "beta": 0.0,
    "assoc_scheme": "None",
    "bib_reference": "Gross (2005): doi: 10.1002/aic.10502",
    "ref": "Default/Gross2005"
  },
  "PC-SAFT-2": {
    "m": 1.4682,
    "sigma": 3.4480E-10,
    "eps_depth_divk": 269.67,
    "eps": 0.0,
    "beta": 0.0,
    "assoc_scheme": "None",
    "Q": 3.0724,
    "bib_reference": "Gross (2005): doi: 10.1002/aic.10502",
    "ref": "Gross2005ADJQ"
  }
}
