{
  "ident": "ClF3Si",
  "formula": "ClF3Si",
  "cas_number": "14049-36-6",
  "name": "CHLOROTRIFLUOROSILANE",
  "aliases": [
    "ChloroTriFluoroSilane"
  ],
  "mol_weight": 120.5,
  "critical": {
    "ref": "Default",
    "bib_reference": "",
    "temperature": 307.7,
    "pressure": 3470000.0,
    "compressibility": 0.0
  },
  "triple": {
    "ref": "Default",
    "bib_reference": "",
    "temperature": 0.0,
    "pressure": 0.0
  },
  "acentric_factor": {
    "ref": "Default",
    "bib_reference": "",
    "acf": 0.27073
  },
  "boiling_temperature": {
    "bib_reference": "",
    "temperature": 203.2
  },
  "saturation": {
    "ref": "Default",
    "bib_reference": "",
    "correlation": 2,
    "ant": [
      0.0,
      0.0,
      0.0
    ],
    "Tmin": 0.0,
    "Tmax": 0.0
  },
  "ideal_heat_capacity-1": {
    "ref": "Default",
    "bib_reference": "",
    "correlation": 4,
    "cp": [
      95.97,
      -6.0838,
      0.012089,
      -6.9076e-06,
      0.0,
      0.0,
      0.0,
      0.0,
      0.0,
      0.0
    ],
    "Tmin": 0.0,
    "Tmax": 0.0
  },
  "reference_state": {
    "bib_reference": "",
    "enthalpy": 0.0,
    "entropy": 0.0
  },
  "standard_formation_energy": {
    "bib_reference": "",
    "enthalpy": 0.0,
    "gibbs": 0.0
  },
  "rackett_factor": {
    "bib_reference": "",
    "Zra": -1.0
  },
  "dipole_moment": {
    "mu": 0.0,
    "bib_reference": ""
  },
  "quadrupole_moment": {
    "Q": 0.0,
    "bib_reference": ""
  },
  "SRK": {},
  "PR": {}
}
