{
  "ident": "CYCLOHEX",
  "formula": "C6H12",
  "cas_number": "110-82-7",
  "name": "CYCLOHEXANE",
  "aliases": [
    "CycloHexane"
  ],
  "mol_weight": 84.161,
  "critical": {
    "ref": "Default",
    "bib_reference": "",
    "temperature": 553.5,
    "pressure": 4073000.0,
    "compressibility": 0.273
  },
  "triple": {
    "ref": "Default",
    "bib_reference": "",
    "temperature": 0.0,
    "pressure": 0.0
  },
  "acentric_factor": {
    "ref": "Default",
    "bib_reference": "",
    "acf": 0.211
  },
  "boiling_temperature": {
    "bib_reference": "",
    "temperature": 353.93
  },
  "saturation": {
    "ref": "Default",
    "bib_reference": "",
    "correlation": 1,
    "ant": [
      0.0,
      0.0,
      0.0
    ],
    "Tmin": 0.0,
    "Tmax": 0.0
  },
  "ideal_heat_capacity-1": {
    "ref": "Default",
    "bib_reference": "",
    "correlation": 8,
    "cp": [
      4.035,
      -0.004433,
      0.00016834,
      -2.0775e-07,
      7.746e-11,
      0.0,
      0.0,
      0.0,
      0.0,
      0.0
    ],
    "Tmin": -100.0,
    "Tmax": 1000.0
  },
  "reference_state": {
    "bib_reference": "",
    "enthalpy": 0.0,
    "entropy": 0.0
  },
  "standard_formation_energy": {
    "bib_reference": "",
    "enthalpy": 0.0,
    "gibbs": 0.0
  },
  "rackett_factor": {
    "bib_reference": "10.1016/j.fluid.2016.09.003",
    "Zra": 0.273
  },
  "dipole_moment": {
    "mu": 0.0,
    "bib_reference": ""
  },
  "quadrupole_moment": {
    "Q": 0.0,
    "bib_reference": ""
  },
  "melting_curve": {
    "bib_reference": "DOI: 10.1063/1.4900538",
    "ref": "DEFAULT",
    "correlation": "ML-1",
    "triple_temperature": 279.86,
    "maximum_temperature": 700.0,
    "reducing_pressure": 5.348700E+03,
    "reducing_temperature": 279.86,
    "n_coeff": 3,
    "n_coeff_1": 2,
    "n_coeff_2": 1,
    "n_coeff_3": 0,
    "coeff": [
      1.0,
      75.0,
      102000.0,
      0.0,
      0.0,
      0.0
    ],
    "exponents": [
      0.0,
      2.0,
      1.0,
      0.0,
      0.0,
      0.0
    ]
  },
  "SRK": {
    "TWU-1": {
      "ref": "tcRK",
      "bib_reference": "10.1016/j.fluid.2016.09.003",
      "correlation": [
        0.3169,
        0.8332,
        1.8629
      ]
    },
    "volume_shift": {
      "ref": "tcRK",
      "bib_reference": "10.1016/j.fluid.2016.09.003",
      "ciA": 1.33377e-05,
      "ciB": 0.0,
      "ciC": 0.0,
      "correlation": 1
    }
  },
  "PR": {
    "TWU-1": {
      "ref": "tcPR",
      "bib_reference": "10.1016/j.fluid.2016.09.003",
      "correlation": [
        0.3691,
        0.812,
        1.3617
      ]
    },
    "volume_shift": {
      "ref": "tcPR",
      "bib_reference": "10.1016/j.fluid.2016.09.003",
      "ciA": -4.2327e-06,
      "ciB": 0.0,
      "ciC": 0.0,
      "correlation": 1
    }
  },
  "PC-SAFT-1": {
    "m": 2.5303,
    "sigma": 3.8499E-10,
    "eps_depth_divk": 278.110,
    "eps": 0.0,
    "beta": 0.0,
    "assoc_scheme": "None",
    "bib_reference": "Kontogeorgis & Folas (2010). Doi: 10.1002/9780470747537",
    "ref": "Default/Kontogeorgis_Folas2001"
  }
}
