{
  "ident": "C3_1",
  "formula": "C3H6",
  "cas_number": "75-19-4",
  "InChI": "1S/C3H6/c1-2-3-1/h1-3H2",
  "structure": "C:3;H:6",
  "name": "CYCLOPROPANE",
  "aliases": [
    "CycloPropane"
  ],
  "mol_weight": 42.081,
  "critical": {
    "ref": "Default",
    "bib_reference": "",
    "temperature": 397.8,
    "pressure": 5490000.0,
    "compressibility": 0.274
  },
  "triple": {
    "ref": "Default",
    "bib_reference": "",
    "temperature": 0.0,
    "pressure": 0.0
  },
  "acentric_factor": {
    "ref": "Default",
    "bib_reference": "",
    "acf": 0.13
  },
  "boiling_temperature": {
    "bib_reference": "",
    "temperature": 240.3
  },
  "saturation": {
    "ref": "Default",
    "bib_reference": "",
    "correlation": 2,
    "ant": [
      0.0,
      0.0,
      0.0
    ],
    "Tmin": 0.0,
    "Tmax": 0.0
  },
  "ideal_heat_capacity-1": {
    "ref": "Default",
    "bib_reference": "",
    "correlation": 4,
    "cp": [
      -35.24,
      0.3813,
      -0.0002881,
      9.035e-08,
      0.0,
      0.0,
      0.0,
      0.0,
      0.0,
      0.0
    ],
    "Tmin": 0.0,
    "Tmax": 0.0
  },
  "reference_state": {
    "enthalpy_bib_reference": "https://webbook.nist.gov : Knowlton and Rossini, 1949",
    "enthalpy": 53.30e3,
    "entropy_bib_reference": "HSC Chemistry 9",
    "entropy_ref_state": "1BAR",
    "entropy": 237.378
  },
  "rackett_factor": {
    "bib_reference": "",
    "Zra": 0.2716
  },
  "dipole_moment": {
    "mu": 0.0,
    "bib_reference": ""
  },
  "quadrupole_moment": {
    "Q": 0.0,
    "bib_reference": ""
  },
  "SRK": {
    "TWU-1": {
      "ref": "tcRK",
      "bib_reference": "10.1016/j.fluid.2016.09.003",
      "correlation": [
        0.2287,
        0.8714,
        2.1594
      ]
    },
    "volume_shift": {
      "ref": "tcRK",
      "bib_reference": "10.1016/j.fluid.2016.09.003",
      "ciA": 6.364699999999999e-06,
      "ciB": 0.0,
      "ciC": 0.0,
      "correlation": 1
    }
  },
  "PR": {
    "TWU-1": {
      "ref": "tcPR",
      "bib_reference": "10.1016/j.fluid.2016.09.003",
      "correlation": [
        0.2163,
        0.8563,
        1.7375
      ]
    },
    "volume_shift": {
      "ref": "tcPR",
      "bib_reference": "10.1016/j.fluid.2016.09.003",
      "ciA": -3.0573999999999997e-06,
      "ciB": 0.0,
      "ciC": 0.0,
      "correlation": 1
    }
  }
}
