{
  "ident": "D2",
  "formula": "D2",
  "cas_number": "7782-39-0",
  "name": "DEUTERIUM",
  "aliases": [
    "Deuterium",
    "DiDeuterium"
  ],
  "mol_weight": 4.0282,
  "critical": {
    "ref": "Default",
    "bib_reference": "10.1063/1.4864752",
    "temperature": 38.34,
    "pressure": 1679600.0,
    "compressibility": 0.3042
  },
  "triple": {
    "ref": "Default",
    "bib_reference": "",
    "temperature": 0.0,
    "pressure": 0.0
  },
  "acentric_factor": {
    "ref": "Default",
    "bib_reference": "",
    "acf": -0.13629
  },
  "boiling_temperature": {
    "bib_reference": "",
    "temperature": 23.661
  },
  "saturation": {
    "ref": "Default",
    "bib_reference": "",
    "correlation": 1,
    "ant": [
      0.0,
      0.0,
      0.0
    ],
    "Tmin": 0.0,
    "Tmax": 0.0
  },
  "ideal_heat_capacity-1": {
    "ref": "Default",
    "bib_reference": "",
    "correlation": 4,
    "cp": [
      20.786,
      0.0,
      0.0,
      0.0,
      0.0,
      0.0,
      0.0,
      0.0,
      0.0,
      0.0
    ],
    "Tmin": -175.0,
    "Tmax": 1200.0
  },
  "reference_state": {
    "bib_reference": "",
    "enthalpy": 0.0,
    "entropy": 0.0
  },
  "standard_formation_energy": {
    "bib_reference": "",
    "enthalpy": 0.0,
    "gibbs": 0.0
  },
  "rackett_factor": {
    "bib_reference": "10.1016/j.fluid.2016.09.003",
    "Zra": 0.315
  },
  "dipole_moment": {
    "mu": 0.0,
    "bib_reference": ""
  },
  "quadrupole_moment": {
    "Q": 0.0,
    "bib_reference": ""
  },
  "SRK": {
    "TWU-1": {
      "ref": "tcRK",
      "bib_reference": "10.1016/j.fluid.2016.09.003",
      "correlation": [
        0.215,
        0.9921,
        1.1079
      ]
    },
    "volume_shift": {
      "ref": "tcRK",
      "bib_reference": "10.1016/j.fluid.2016.09.003",
      "ciA": -1.2543e-06,
      "ciB": 0.0,
      "ciC": 0.0,
      "correlation": 1
    }
  },
  "PR": {
    "TWU-1": {
      "ref": "tcPR",
      "bib_reference": "10.1016/j.fluid.2016.09.003",
      "correlation": [
        0.1486,
        0.9968,
        1.0587
      ]
    },
    "TWU-2": {
      "ref": "QuantumCubic",
      "bib_reference": "10.1016/j.fluid.2020.112790",
      "correlation": [
        55.007,
        -0.016981,
        3.1621
      ]
    },
    "volume_shift-1": {
      "ref": "tcPR",
      "bib_reference": "10.1016/j.fluid.2016.09.003",
      "ciA": -4.5555e-06,
      "ciB": 0.0,
      "ciC": 0.0,
      "correlation": 1
    },
    "volume_shift-2": {
      "ref": "QuantumCubic",
      "bib_reference": "10.1016/j.fluid.2020.112790",
      "ciA": -3.8718e-06,
      "ciB": 0.0,
      "ciC": 0.0,
      "correlation": 1
    }
  },
  "SAFTVRMIE-1": {
    "m": 1.000,
    "sigma": 3.1538E-10,
    "eps_depth_divk": 21.2000,
    "lambda_a": 6.0000,
    "lambda_r": 8.0000,
    "mass": 6.6890E-27,
    "eps": 0.0000,
    "beta": 0.0000,
    "assoc_scheme": "None",
    "fh_order": 0,
    "bib_reference": "Aasen 2019, doi: 10.1063/1.5111364",
    "ref": "DEFAULT/AASEN2019-FH0"
  },
  "SAFTVRMIE-2": {
    "m": 1.000,
    "sigma": 3.0203E-10,
    "eps_depth_divk": 30.2730,
    "lambda_a": 6.0000,
    "lambda_r": 10.0000,
    "mass": 6.6890E-27,
    "eps": 0.0000,
    "beta": 0.0000,
    "assoc_scheme": "None",
    "fh_order": 1,
    "bib_reference": "Aasen 2019, doi: 10.1063/1.5111364",
    "ref": "AASEN2019-FH1"
  },
  "SAFTVRMIE-3": {
    "m": 1.000,
    "sigma": 2.9897E-10,
    "eps_depth_divk": 36.9130,
    "lambda_a": 6.0000,
    "lambda_r": 12.0000,
    "mass": 6.6890E-27,
    "eps": 0.0000,
    "beta": 0.0000,
    "assoc_scheme": "None",
    "fh_order": 2,
    "bib_reference": "Aasen 2019, doi: 10.1063/1.5111364",
    "ref": "AASEN2019-FH2/AASEN2019-FH2-LJ"
  },
  "SAFTVRMIE-4": {
    "m": 1.000,
    "sigma": 3.1561E-10,
    "eps_depth_divk": 28.2220,
    "lambda_a": 6.0000,
    "lambda_r": 12.0000,
    "mass": 6.6890E-27,
    "eps": 0.0000,
    "beta": 0.0000,
    "assoc_scheme": "None",
    "fh_order": 0,
    "bib_reference": "Aasen 2019, doi: 10.1063/1.5111364",
    "ref": "AASEN2019-FH0-LJ"
  },
  "SAFTVRMIE-5": {
    "m": 1.000,
    "sigma": 3.0193E-10,
    "eps_depth_divk": 34.3890,
    "lambda_a": 6.0000,
    "lambda_r": 12.0000,
    "mass": 6.6890E-27,
    "eps": 0.0000,
    "beta": 0.0000,
    "assoc_scheme": "None",
    "fh_order": 1,
    "bib_reference": "Aasen 2019, doi: 10.1063/1.5111364",
    "ref": "AASEN2019-FH1-LJ"
  }
}
