{
  "ident": "S434",
  "formula": "C12H26O",
  "cas_number": "112-58-3",
  "InChI": "1S/C12H26O/c1-3-5-7-9-11-13-12-10-8-6-4-2/h3-12H2,1-2H3",
  "structure": "C:12;H:26;O:1",
  "name": "DI-n-HEXYL ETHER",
  "aliases": [
    "DiHexylEther",
    "1-(Hexyloxy)hexane"
  ],
  "mol_weight": 186.339,
  "critical": {
    "ref": "Default",
    "bib_reference": "",
    "temperature": 657.0,
    "pressure": 1823900.0,
    "compressibility": 0.24
  },
  "triple": {
    "ref": "Default",
    "bib_reference": "",
    "temperature": 0.0,
    "pressure": 0.0
  },
  "acentric_factor": {
    "ref": "Default",
    "bib_reference": "",
    "acf": 0.7
  },
  "boiling_temperature": {
    "bib_reference": "",
    "temperature": 499.6
  },
  "saturation": {
    "ref": "Default",
    "bib_reference": "",
    "correlation": 1,
    "ant": [
      16.3372,
      3982.78,
      -89.15
    ],
    "Tmin": 373.0,
    "Tmax": 545.0
  },
  "ideal_heat_capacity-1": {
    "ref": "Default",
    "bib_reference": "",
    "correlation": 1,
    "cp": [
      8.01,
      0.2564,
      -0.0001322,
      4.007e-08,
      0.0,
      0.0,
      0.0,
      0.0,
      0.0,
      0.0
    ],
    "Tmin": 0.0,
    "Tmax": 0.0
  },
  "reference_state": {
    "enthalpy_bib_reference": "",
    "enthalpy": 0.0,
    "entropy_bib_reference": "",
    "entropy_ref_state": "1BAR",
    "entropy": 0.0
  },
  "rackett_factor": {
    "bib_reference": "",
    "Zra": -1.0
  },
  "dipole_moment": {
    "mu": 0.0,
    "bib_reference": ""
  },
  "quadrupole_moment": {
    "Q": 0.0,
    "bib_reference": ""
  },
  "SRK": {},
  "PR": {}
}
