{
  "ident": "DME",
  "formula": "C2H6O",
  "cas_number": "115-10-6",
  "name": "di-methyl ether",
  "aliases": [
    "MethoxyMethane",
    "MethylEther"
  ],
  "mol_weight": 46.06844,
  "critical": {
    "ref": "Default",
    "bib_reference": "Wu et al. doi: 10.1063/1.3582533",
    "temperature": 400.378,
    "pressure": 5336800.0,
    "compressibility": 0.26989
  },
  "triple": {
    "ref": "Default",
    "bib_reference": "Wu et al. doi: 10.1063/1.3582533",
    "temperature": 131.66,
    "pressure": 2.2
  },
  "acentric_factor": {
    "ref": "Default",
    "bib_reference": "Wu et al. doi: 10.1063/1.3582533",
    "acf": 0.196
  },
  "boiling_temperature": {
    "bib_reference": "Wu et al. doi: 10.1063/1.3582533",
    "temperature": 248.368
  },
  "saturation": {
    "ref": "Default",
    "bib_reference": "",
    "correlation": 1,
    "ant": [
      0.0,
      0.0,
      0.0
    ],
    "Tmin": 0.0,
    "Tmax": 0.0
  },
  "ideal_heat_capacity-1": {
    "ref": "Default",
    "bib_reference": "The properties of gases and liquids, 5th ed. ISBN: 978-0-07-011682-5",
    "correlation": 8,
    "cp": [
      4.361,
      6.070e-3,
      2.899e-5,
      -3.581e-8,
      1.282e-11,
      0.0,
      0.0,
      0.0,
      0.0,
      0.0
    ],
    "Tmin": 100.0,
    "Tmax": 1000.0
  },
  "reference_state": {
    "bib_reference": "",
    "enthalpy": 0.0,
    "entropy": 0.0
  },
  "standard_formation_energy": {
    "bib_reference": "",
    "enthalpy": 0.0,
    "gibbs": 0.0
  },
  "rackett_factor": {
    "bib_reference": "",
    "Zra": -1.0
  },
  "dipole_moment": {
    "mu": 1.3,
    "bib_reference": ""
  },
  "quadrupole_moment": {
    "Q": 0.0,
    "bib_reference": ""
  },
  "SRK": {},
  "PR": {},
  "PC-SAFT-1": {
    "m": 2.2634,
    "sigma": 3.2723E-10,
    "eps_depth_divk": 210.29,
    "eps": 0.0,
    "beta": 0.0,
    "assoc_scheme": "None",
    "bib_reference": "Gross and Vrabeck (2006). Doi: 10.1002/aic.10683",
    "ref": "Default/Gross2006"
  }
}
