{
  "ident": "N2O4",
  "formula": "N2O4",
  "cas_number": "10544-72-6",
  "InChI": "1S/N2O4/c3-1(4)2(5)6",
  "structure": "N:2;O:4",
  "name": "DINITROGEN TETROXIDE",
  "aliases": [
    "DiNitrogenTetroxide"
  ],
  "mol_weight": 92.011,
  "critical": {
    "ref": "Default",
    "bib_reference": "",
    "temperature": 431.01,
    "pressure": 10100000.0,
    "compressibility": 0.4707
  },
  "triple": {
    "ref": "Default",
    "bib_reference": "",
    "temperature": 0.0,
    "pressure": 0.0
  },
  "acentric_factor": {
    "ref": "Default",
    "bib_reference": "",
    "acf": 1.007
  },
  "boiling_temperature": {
    "bib_reference": "",
    "temperature": 302.22
  },
  "saturation": {
    "ref": "Default",
    "bib_reference": "",
    "correlation": 1,
    "ant": [
      17.0046,
      2730.2,
      -38.97
    ],
    "Tmin": 254.17,
    "Tmax": 320.69
  },
  "ideal_heat_capacity-1": {
    "ref": "Default",
    "bib_reference": "",
    "correlation": 6,
    "cp": [
      0.30489,
      0.00246305,
      -1.7323e-06,
      -5.5664e-10,
      7.7623e-13,
      0.0,
      0.0,
      0.0,
      0.0,
      0.0
    ],
    "Tmin": 50.0,
    "Tmax": 1000.0
  },
  "reference_state": {
    "enthalpy_bib_reference": "https://webbook.nist.gov : Chase, 1998",
    "enthalpy": 9.08e3,
    "entropy_bib_reference": "https://webbook.nist.gov : Chase, 1998",
    "entropy_ref_state": "1BAR",
    "entropy": 304.38
  },
  "rackett_factor": {
    "bib_reference": "",
    "Zra": 0.3665
  },
  "dipole_moment": {
    "mu": 0.0,
    "bib_reference": ""
  },
  "quadrupole_moment": {
    "Q": 0.0,
    "bib_reference": ""
  },
  "SRK": {},
  "PR": {}
}
