{
  "ident": "ETOH",
  "formula": "ETOH",
  "cas_number": "64-17-5",
  "name": "ETHANOL",
  "aliases": [
    "Ethanol"
  ],
  "mol_weight": 46.0684,
  "critical": {
    "ref": "Default",
    "bib_reference": "10.1063/1.4895394",
    "temperature": 514.71,
    "pressure": 6268000.0,
    "compressibility": 0.247
  },
  "triple": {
    "ref": "Default",
    "bib_reference": "",
    "temperature": 0.0,
    "pressure": 0.0
  },
  "acentric_factor": {
    "ref": "Default",
    "bib_reference": "",
    "acf": 0.646
  },
  "boiling_temperature": {
    "bib_reference": "",
    "temperature": 351.57
  },
  "saturation": {
    "ref": "Default",
    "bib_reference": "",
    "correlation": 1,
    "ant": [
      0.0,
      0.0,
      0.0
    ],
    "Tmin": 0.0,
    "Tmax": 0.0
  },
  "ideal_heat_capacity-1": {
    "ref": "Default",
    "bib_reference": "",
    "correlation": 2,
    "cp": [
      0.0,
      0.0,
      0.0,
      0.0,
      0.0,
      0.0,
      0.0,
      0.0,
      0.0,
      0.0
    ],
    "Tmin": -175.0,
    "Tmax": 1200.0
  },
  "reference_state": {
    "bib_reference": "",
    "enthalpy": 0.0,
    "entropy": 0.0
  },
  "standard_formation_energy": {
    "bib_reference": "",
    "enthalpy": 0.0,
    "gibbs": 0.0
  },
  "rackett_factor": {
    "bib_reference": "10.1016/j.fluid.2016.09.003",
    "Zra": 0.243
  },
  "dipole_moment": {
    "mu": 0.0,
    "bib_reference": ""
  },
  "quadrupole_moment": {
    "Q": 0.0,
    "bib_reference": ""
  },
  "SRK": {
    "TWU-1": {
      "ref": "tcRK",
      "bib_reference": "10.1016/j.fluid.2016.09.003",
      "correlation": [
        0.9437,
        0.9363,
        1.559
      ]
    },
    "volume_shift": {
      "ref": "tcRK",
      "bib_reference": "10.1016/j.fluid.2016.09.003",
      "ciA": 1.6073599999999998e-05,
      "ciB": 0.0,
      "ciC": 0.0,
      "correlation": 1
    }
  },
  "PR": {
    "TWU-1": {
      "ref": "tcPR",
      "bib_reference": "10.1016/j.fluid.2016.09.003",
      "correlation": [
        0.9861,
        0.9642,
        1.3338
      ]
    },
    "volume_shift": {
      "ref": "tcPR",
      "bib_reference": "10.1016/j.fluid.2016.09.003",
      "ciA": 5.9509999999999994e-06,
      "ciB": 0.0,
      "ciC": 0.0,
      "correlation": 1
    }
  },
  "PC-SAFT-1": {
    "m": 2.3609,
    "sigma": 3.1895E-10,
    "eps_depth_divk": 207.560,
    "eps": 22413.213735129506,
    "beta": 0.017121679962,
    "assoc_scheme": "2C",
    "bib_reference": "de Villiers et al. (2011). Doi: 10.1021/ie200521k",
    "ref": "Default/deVilliers2011"
  },
  "PC-SAFT-2": {
    "m": 1.2309,
    "sigma": 4.1057E-10,
    "eps_depth_divk": 316.910,
    "eps": 23372.120708881121,
    "beta": 0.00331438025,
    "assoc_scheme": "2B",
    "bib_reference": "Tang & Gross (2010). Doi: 10.1016/j.fluid.2010.02.004",
    "ref": "Tang_Gross2010"
  },
  "PC-SAFT-3": {
    "m": 2.3827,
    "sigma": 3.1771E-10,
    "eps_depth_divk": 198.240,
    "eps": 22061.595111007806,
    "beta": 0.032384,
    "assoc_scheme": "2B",
    "bib_reference": "Gross & Sadowski (2002). Doi: 10.1021/ie010954d",
    "ref": "Gross_Sadowski2002"
  }
}
