{
  "ident": "ETOH",
  "formula": "ETOH",
  "cas_number": "64-17-5",
  "name": "ETHANOL",
  "aliases": [
    "Ethanol"
  ],
  "mol_weight": 46.0684,
  "critical": {
    "ref": "Default",
    "bib_reference": "10.1063/1.4895394",
    "temperature": 514.71,
    "pressure": 6268000.0,
    "compressibility": 0.247
  },
  "triple": {
    "ref": "Default",
    "bib_reference": "",
    "temperature": 0.0,
    "pressure": 0.0
  },
  "acentric_factor": {
    "ref": "Default",
    "bib_reference": "",
    "acf": 0.646
  },
  "boiling_temperature": {
    "bib_reference": "",
    "temperature": 351.57
  },
  "saturation": {
    "ref": "Default",
    "bib_reference": "",
    "correlation": 1,
    "ant": [
      0.0,
      0.0,
      0.0
    ],
    "Tmin": 0.0,
    "Tmax": 0.0
  },
  "ideal_heat_capacity-1": {
    "ref": "Default",
    "bib_reference": "",
    "correlation": 2,
    "cp": [
      0.0,
      0.0,
      0.0,
      0.0,
      0.0,
      0.0,
      0.0,
      0.0,
      0.0,
      0.0
    ],
    "Tmin": -175.0,
    "Tmax": 1200.0
  },
  "reference_state": {
    "bib_reference": "",
    "enthalpy": 0.0,
    "entropy": 0.0
  },
  "standard_formation_energy": {
    "bib_reference": "",
    "enthalpy": 0.0,
    "gibbs": 0.0
  },
  "rackett_factor": {
    "bib_reference": "10.1016/j.fluid.2016.09.003",
    "Zra": 0.243
  },
  "dipole_moment": {
    "mu": 0.0,
    "bib_reference": ""
  },
  "quadrupole_moment": {
    "Q": 0.0,
    "bib_reference": ""
  },
  "SRK": {
    "TWU-1": {
      "ref": "tcRK",
      "bib_reference": "10.1016/j.fluid.2016.09.003",
      "correlation": [
        0.9437,
        0.9363,
        1.559
      ]
    },
    "volume_shift": {
      "ref": "tcRK",
      "bib_reference": "10.1016/j.fluid.2016.09.003",
      "ciA": 1.6073599999999998e-05,
      "ciB": 0.0,
      "ciC": 0.0,
      "correlation": 1
    },
    "CPA-1": {
      "ref": "SINTEF/Queimada2005",
      "bib_reference": "10.1016/j.fluid.2004.08.011",
      "a0": 8.6716E+5,
      "b": 0.049110,
      "alphaParams": [0.73690,0.0,0.0],
      "alphaCorr": "Classic",
      "eps": 21.532E3,
      "beta": 8E-3,
      "assoc_scheme": "2B"
    },
    "CPA-2": {
      "ref": "Default/Oliveira2008",
      "bib_reference": "10.1016/j.fluid.2008.02.020",
      "a0": 0.68415E+6,
      "b": 4.7508E-2,
      "alphaParams": [0.93923 ,0.0,0.0],
      "alphaCorr": "Classic",
      "eps": 21336.0,
      "beta": 1.9212E-2,
      "assoc_scheme": "2B"
    }
  },
  "PR": {
    "TWU-1": {
      "ref": "tcPR",
      "bib_reference": "10.1016/j.fluid.2016.09.003",
      "correlation": [
        0.9861,
        0.9642,
        1.3338
      ]
    },
    "volume_shift": {
      "ref": "tcPR",
      "bib_reference": "10.1016/j.fluid.2016.09.003",
      "ciA": 5.9509999999999994e-06,
      "ciB": 0.0,
      "ciC": 0.0,
      "correlation": 1
    }
  },
  "PC-SAFT-1": {
    "m": 2.3609,
    "sigma": 3.1895E-10,
    "eps_depth_divk": 207.560,
    "eps": 22413.213735129506,
    "beta": 0.017121679962,
    "assoc_scheme": "2C",
    "bib_reference": "de Villiers et al. (2011). Doi: 10.1021/ie200521k",
    "ref": "Default/deVilliers2011"
  },
  "PC-SAFT-2": {
    "m": 1.2309,
    "sigma": 4.1057E-10,
    "eps_depth_divk": 316.910,
    "eps": 23372.120708881121,
    "beta": 0.00331438025,
    "assoc_scheme": "2B",
    "bib_reference": "Tang & Gross (2010). Doi: 10.1016/j.fluid.2010.02.004",
    "ref": "Tang_Gross2010"
  },
  "PC-SAFT-3": {
    "m": 2.3827,
    "sigma": 3.1771E-10,
    "eps_depth_divk": 198.240,
    "eps": 22061.595111007806,
    "beta": 0.032384,
    "assoc_scheme": "2B",
    "bib_reference": "Gross & Sadowski (2002). Doi: 10.1021/ie010954d",
    "ref": "Gross_Sadowski2002"
  },
  "SAFTVRMIE-1": {
    "m": 2.25648939,
    "sigma": 3.2903E-10,
    "eps_depth_divk": 238.97,
    "lambda_a": 6.0000,
    "lambda_r": 12.282,
    "mass": 0.0,
    "eps": 2247.3,
    "beta": 4.2794E-29,
    "assoc_scheme": "3B",
    "fh_order": 0,
    "bib_reference": "Dufal (2015) - 10.1080/00268976.2015.1029027",
    "ref": "DEFAULT/Dufal2015"
  },
  "SAFTVRMIE-2": {
    "m": 1.7639,
    "sigma": 3.6025E-10,
    "eps_depth_divk": 307.92,
    "lambda_a": 6.0000,
    "lambda_r": 17.968,
    "mass": 0.0,
    "eps": 2380.0,
    "beta": 150.18E-30,
    "assoc_scheme": "3B",
    "fh_order": 0,
    "bib_reference": "Polishuk (2018) - 10.1016/j.molliq.2018.05.112",
    "ref": "Polishuk"
  }
}
