{
  "ident": "EBZN",
  "formula": "C8H10",
  "cas_number": "100-41-4",
  "InChI": "1S/C8H10/c1-2-8-6-4-3-5-7-8/h3-7H,2H2,1H3",
  "structure": "C:8;H:10",
  "name": "ETHYLBENZENE",
  "aliases": [
    "EthylBenzene"
  ],
  "mol_weight": 106.167,
  "critical": {
    "ref": "Default",
    "bib_reference": "",
    "temperature": 617.16,
    "pressure": 3608000.0,
    "compressibility": 0.263
  },
  "triple": {
    "ref": "Default",
    "bib_reference": "",
    "temperature": 0.0,
    "pressure": 0.0
  },
  "acentric_factor": {
    "ref": "Default",
    "bib_reference": "",
    "acf": 0.302
  },
  "boiling_temperature": {
    "bib_reference": "",
    "temperature": 409.36
  },
  "saturation": {
    "ref": "Default",
    "bib_reference": "",
    "correlation": 2,
    "ant": [
      0.0,
      0.0,
      0.0
    ],
    "Tmin": 0.0,
    "Tmax": 0.0
  },
  "ideal_heat_capacity-1": {
    "ref": "Default",
    "bib_reference": "",
    "correlation": 7,
    "cp": [
      78440.0,
      339900.0,
      1559.0,
      242600.0,
      -702.0,
      0.0,
      0.0,
      0.0,
      0.0,
      0.0
    ],
    "Tmin": 200.0,
    "Tmax": 1500.0
  },
  "reference_state": {
    "enthalpy_bib_reference": "https://webbook.nist.gov : Prosen, Gilmont, et al., 1945",
    "enthalpy_ref_state": "1ATM",
    "enthalpy": 29.8e3,
    "entropy_bib_reference": "https://webbook.nist.gov : Miller A., 1978",
    "entropy_ref_state": "1ATM",
    "entropy": 360.6
  },
  "standard_formation_energy": {
    "bib_reference": "ISBN: 978-0070116825",
    "enthalpy": 29920.0,
    "gibbs": 130730.0
  },
  "rackett_factor": {
    "bib_reference": "10.1016/j.fluid.2016.09.003",
    "Zra": 0.262
  },
  "dipole_moment": {
    "mu": 0.0,
    "bib_reference": ""
  },
  "quadrupole_moment": {
    "Q": 0.0,
    "bib_reference": ""
  },
  "SRK": {
    "TWU-1": {
      "ref": "tcRK",
      "bib_reference": "10.1016/j.fluid.2016.09.003",
      "correlation": [
        0.5113,
        0.8334,
        1.5683
      ]
    },
    "volume_shift": {
      "ref": "tcRK",
      "bib_reference": "10.1016/j.fluid.2016.09.003",
      "ciA": 2.4614999999999997e-05,
      "ciB": 0.0,
      "ciC": 0.0,
      "correlation": 1
    }
  },
  "PR": {
    "TWU-1": {
      "ref": "tcPR",
      "bib_reference": "10.1016/j.fluid.2016.09.003",
      "correlation": [
        0.4991,
        0.8229,
        1.3553
      ]
    },
    "volume_shift": {
      "ref": "tcPR",
      "bib_reference": "10.1016/j.fluid.2016.09.003",
      "ciA": 2.7029999999999998e-06,
      "ciB": 0.0,
      "ciC": 0.0,
      "correlation": 1
    }
  }
}
