{
  "ident": "HE",
  "formula": "HE",
  "cas_number": "7440-59-7",
  "name": "HELIUM-4",
  "aliases": [
    "Helium",
    "HE4",
    "R704"
  ],
  "mol_weight": 4.003,
  "critical": {
    "ref": "Default",
    "bib_reference": "",
    "temperature": 5.1953,
    "pressure": 227600.0,
    "compressibility": 0.301
  },
  "triple": {
    "ref": "Default",
    "bib_reference": "",
    "temperature": 0.0,
    "pressure": 0.0
  },
  "acentric_factor": {
    "ref": "Default",
    "bib_reference": "",
    "acf": -0.385
  },
  "boiling_temperature": {
    "bib_reference": "",
    "temperature": 4.21
  },
  "saturation": {
    "ref": "Default",
    "bib_reference": "",
    "correlation": 1,
    "ant": [
      12.2514,
      33.7329,
      1.79
    ],
    "Tmin": 3.7,
    "Tmax": 4.3
  },
  "ideal_heat_capacity-1": {
    "ref": "Default",
    "bib_reference": "",
    "correlation": 4,
    "cp": [
      20.786,
      0.0,
      0.0,
      0.0,
      0.0,
      0.0,
      0.0,
      0.0,
      0.0,
      0.0
    ],
    "Tmin": 0.0,
    "Tmax": 0.0
  },
  "reference_state": {
    "bib_reference": "",
    "enthalpy": 0.0,
    "entropy": 0.0
  },
  "standard_formation_energy": {
    "bib_reference": "",
    "enthalpy": 0.0,
    "gibbs": 0.0
  },
  "rackett_factor": {
    "bib_reference": "10.1016/j.fluid.2016.09.003",
    "Zra": 0.3355
  },
  "dipole_moment": {
    "mu": 0.0,
    "bib_reference": ""
  },
  "quadrupole_moment": {
    "Q": 0.0,
    "bib_reference": ""
  },
  "SRK": {
    "TWU-1": {
      "ref": "tcRK",
      "bib_reference": "10.1016/j.fluid.2016.09.003",
      "correlation": [
        -0.0466,
        1.2473,
        0.5401
      ]
    },
    "volume_shift": {
      "ref": "tcRK",
      "bib_reference": "10.1016/j.fluid.2016.09.003",
      "ciA": -1.4608e-06,
      "ciB": 0.0,
      "ciC": 0.0,
      "correlation": 1
    }
  },
  "PR": {
    "TWU-1": {
      "ref": "tcPR",
      "bib_reference": "10.1016/j.fluid.2016.09.003",
      "correlation": [
        0.0063,
        1.2175,
        1.0909
      ]
    },
    "TWU-2": {
      "ref": "QuantumCubic",
      "bib_reference": "10.1016/j.fluid.2020.112790",
      "correlation": [
        0.48558,
        1.7173,
        0.30271
      ]
    },
    "volume_shift-1": {
      "ref": "tcPR",
      "bib_reference": "10.1016/j.fluid.2016.09.003",
      "ciA": -4.8915e-06,
      "ciB": 0.0,
      "ciC": 0.0,
      "correlation": 1
    },
    "volume_shift-2": {
      "ref": "QuantumCubic",
      "bib_reference": "10.1016/j.fluid.2020.112790",
      "ciA": -3.1791e-06,
      "ciB": 0.0,
      "ciC": 0.0,
      "correlation": 1
    }
  },
  "SAFTVRMIE-1": {
    "m": 1.000,
    "sigma": 3.3530E-10,
    "eps_depth_divk": 4.4400,
    "lambda_a": 6.0000,
    "lambda_r": 14.8400,
    "mass": 6.6464764E-27,
    "eps": 0.0000,
    "beta": 0.0000,
    "assoc_scheme": "None",
    "fh_order": 0,
    "bib_reference": "Herdes 2015, doi: 10.1016/j.fluid.2015.07.014",
    "ref": "DEFAULT/AASEN2019-FH0"
  },
  "SAFTVRMIE-2": {
    "m": 1.000,
    "sigma": 2.7443E-10,
    "eps_depth_divk": 5.4195,
    "lambda_a": 6.0000,
    "lambda_r": 9.0000,
    "mass": 6.6464764E-27,
    "eps": 0.0000,
    "beta": 0.0000,
    "assoc_scheme": "None",
    "fh_order": 1,
    "bib_reference": "Aasen 2019, doi: 10.1063/1.5111364",
    "ref": "AASEN2019-FH1"
  },
  "SAFTVRMIE-3": {
    "m": 1.000,
    "sigma": 2.5490E-10,
    "eps_depth_divk": 10.9520,
    "lambda_a": 6.0000,
    "lambda_r": 13.0000,
    "mass": 6.6464764E-27,
    "eps": 0.0000,
    "beta": 0.0000,
    "assoc_scheme": "None",
    "fh_order": 2,
    "bib_reference": "Aasen 2019, doi: 10.1063/1.5111364",
    "ref": "AASEN2019-FH2"
  },
  "SAFTVRMIE-4": {
    "m": 1.000,
    "sigma": 3.1273E-10,
    "eps_depth_divk": 4.1463,
    "lambda_a": 6.0000,
    "lambda_r": 12.0000,
    "mass": 6.6464764E-27,
    "eps": 0.0000,
    "beta": 0.0000,
    "assoc_scheme": "None",
    "fh_order": 0,
    "bib_reference": "Aasen 2019, doi: 10.1063/1.5111364",
    "ref": "AASEN2019-FH0-LJ"
  },
  "SAFTVRMIE-5": {
    "m": 1.000,
    "sigma": 2.8107E-10,
    "eps_depth_divk": 6.6893,
    "lambda_a": 6.0000,
    "lambda_r": 12.0000,
    "mass": 6.6464764E-27,
    "eps": 0.0000,
    "beta": 0.0000,
    "assoc_scheme": "None",
    "fh_order": 1,
    "bib_reference": "Aasen 2019, doi: 10.1063/1.5111364",
    "ref": "AASEN2019-FH1-LJ"
  },
  "SAFTVRMIE-6": {
    "m": 1.000,
    "sigma": 2.5442E-10,
    "eps_depth_divk": 10.3930,
    "lambda_a": 6.0000,
    "lambda_r": 12.0000,
    "mass": 6.6464764E-27,
    "eps": 0.0000,
    "beta": 0.0000,
    "assoc_scheme": "None",
    "fh_order": 2,
    "bib_reference": "Aasen 2019, doi: 10.1063/1.5111364",
    "ref": "AASEN2019-FH2-LJ"
  },
  "SAFTVRMIE-7": {
    "m": 1.000,
    "sigma": 2.8525E-10,
    "eps_depth_divk": 4.5764,
    "lambda_a": 6.0000,
    "lambda_r": 8.3471,
    "mass": 6.6464764E-27,
    "eps": 0.0000,
    "beta": 0.0000,
    "assoc_scheme": "None",
    "fh_order": 0,
    "bib_reference": "HYVA parameters with non-integer repulsive exponent",
    "ref": "HYVA-FH0"
  },
  "SAFTVRMIE-8": {
    "m": 1.000,
    "sigma": 2.6615E-10,
    "eps_depth_divk": 7.9191,
    "lambda_a": 6.0000,
    "lambda_r": 10.4550,
    "mass": 6.6464764E-27,
    "eps": 0.0000,
    "beta": 0.0000,
    "assoc_scheme": "None",
    "fh_order": 1,
    "bib_reference": "HYVA parameters with non-integer repulsive exponent",
    "ref": "HYVA-FH1"
  },
  "SAFTVRMIE-9": {
    "m": 1.000,
    "sigma": 2.5682E-10,
    "eps_depth_divk": 11.9420,
    "lambda_a": 6.0000,
    "lambda_r": 13.2390,
    "mass": 6.6464764E-27,
    "eps": 0.0000,
    "beta": 0.0000,
    "assoc_scheme": "None",
    "fh_order": 2,
    "bib_reference": "HYVA parameters with non-integer repulsive exponent",
    "ref": "HYVA-FH2"
  }
}
