{
  "ident": "N2H4",
  "formula": "N2H4",
  "cas_number": "302-01-2",
  "InChI": "1S/H4N2/c1-2/h1-2H2",
  "structure": "H:4;N:2",
  "name": "HYDRAZINE",
  "aliases": [
    "Diazane",
    "Diamine"
  ],
  "mol_weight": 32.0452,
  "critical": {
    "ref": "Default",
    "bib_reference": "10.1016/j.fluid.2016.09.003",
    "temperature": 653.15,
    "pressure": 147.0e5,
    "compressibility": 0.28
  },
  "triple": {
    "ref": "Default",
    "bib_reference": "",
    "temperature": 0.0,
    "pressure": 0.0
  },
  "acentric_factor": {
    "ref": "Default",
    "bib_reference": "10.1016/j.fluid.2016.09.003",
    "acf": 0.3143
  },
  "boiling_temperature": {
    "bib_reference": "Poling, Prausnitz and O'Connell. ISBN: 978-0-07-011682-5",
    "temperature": 386.65
  },
  "saturation": {
    "ref": "Default",
    "bib_reference": "",
    "correlation": 1,
    "ant": [
      0.0,
      0.0,
      0.0
    ],
    "Tmin": 0.0,
    "Tmax": 0.0
  },
  "ideal_heat_capacity-1": {
    "ref": "Default",
    "bib_reference": "Poling, Prausnitz and O'Connell. ISBN: 978-0-07-011682-5",
    "correlation": 8,
    "cp": [
      3.627,
      2.239e-3,
      2.876e-5,
      -4.060e-8,
      1.690e-11,
      0.0,
      0.0,
      0.0,
      0.0,
      0.0
    ],
    "Tmin": 50.0,
    "Tmax": 1000.0
  },
  "reference_state": {
    "bib_reference": "https://webbook.nist.gov",
    "enthalpy": 95353.40,
    "entropy": 238.66
  },
  "standard_formation_energy": {
    "bib_reference": "ISBN: 978-0070116825",
    "enthalpy": 95400.0 ,
    "gibbs": 159380.0
  },
  "rackett_factor": {
    "bib_reference": "10.1016/j.fluid.2016.09.003",
    "Zra": 0.2641
  },
  "dipole_moment": {
    "mu": 0.0,
    "bib_reference": ""
  },
  "quadrupole_moment": {
    "Q": 0.0,
    "bib_reference": ""
  },
  "SRK": {
    "TWU-1": {
      "ref": "tcRK",
      "bib_reference": "10.1016/j.fluid.2016.09.003",
      "correlation": [
        0.4306,
        0.8484,
        1.8945
      ]
    },
    "volume_shift": {
      "ref": "tcRK",
      "bib_reference": "10.1016/j.fluid.2016.09.003",
      "ciA": 5.6600e-06,
      "ciB": 0.0,
      "ciC": 0.0,
      "correlation": 1
    }
  },
  "PR": {
    "TWU-1": {
      "ref": "tcPR",
      "bib_reference": "10.1016/j.fluid.2016.09.003",
      "correlation": [
        0.4609,
        0.8428,
        1.5279
      ]
    },
    "volume_shift": {
      "ref": "tcPR",
      "bib_reference": "10.1016/j.fluid.2016.09.003",
      "ciA": 0.0113e-06,
      "ciB": 0.0,
      "ciC": 0.0,
      "correlation": 1
    }
  },
  "SAFTVRMIE-1": {
    "m": 1.7839,
    "sigma": 3.0012E-10,
    "eps_depth_divk": 373.00,
    "lambda_a": 6.0000,
    "lambda_r": 30.823,
    "mass": 0.0,
    "eps": 1400.0,
    "beta": 996.66E-30,
    "assoc_scheme": "4C",
    "fh_order": 0,
    "bib_reference": "Polishuk (2018) - 10.1016/j.molliq.2018.05.112",
    "ref": "DEFAULT/Polishuk"
  }
}
