{
  "ident": "H2S",
  "formula": "H2S",
  "cas_number": "7783-06-4",
  "InChI": "1S/H2S/h1H2",
  "structure": "H:2;S:1",
  "name": "HYDROGEN SULFIDE",
  "aliases": [
    "HydrogenSulfide"
  ],
  "mol_weight": 34.08,
  "critical": {
    "ref": "Default",
    "bib_reference": "",
    "temperature": 373.2,
    "pressure": 8936900.0,
    "compressibility": 0.284
  },
  "triple": {
    "ref": "Default",
    "bib_reference": "",
    "temperature": 0.0,
    "pressure": 0.0
  },
  "acentric_factor": {
    "ref": "Default",
    "bib_reference": "",
    "acf": 0.1
  },
  "boiling_temperature": {
    "bib_reference": "",
    "temperature": 212.8
  },
  "saturation": {
    "ref": "Default",
    "bib_reference": "",
    "correlation": 1,
    "ant": [
      16.104,
      1768.69,
      -26.06
    ],
    "Tmin": 190.0,
    "Tmax": 230.0
  },
  "ideal_heat_capacity-1": {
    "ref": "Default",
    "bib_reference": "",
    "correlation": 2,
    "cp": [
      -1.437049,
      0.998865,
      -0.000184315,
      5.57087e-07,
      -7.8632e-11,
      6.985e-15,
      1.805409,
      0.0,
      0.0,
      0.0
    ],
    "Tmin": -175.0,
    "Tmax": 1200.0
  },
  "reference_state": {
    "bib_reference": "",
    "enthalpy": 0.0,
    "entropy": 0.0
  },
  "standard_formation_energy": {
    "bib_reference": "ISBN: 978-0070116825",
    "enthalpy": -20630.0,
    "gibbs": -33430.0
  },
  "rackett_factor": {
    "bib_reference": "",
    "Zra": 0.2855
  },
  "dipole_moment": {
    "mu": 0.0,
    "bib_reference": ""
  },
  "quadrupole_moment": {
    "Q": 0.0,
    "bib_reference": ""
  },
  "sublimation_curve": {
    "bib_reference": "DOI: 10.1016/j.pss.2009.09.011",
    "ref": "DEFAULT",
    "correlation": "S2",
    "triple_temperature": 187.7,
    "minimum_temperature": 0.0,
    "reducing_pressure": 1.000000E+06,
    "reducing_temperature": 187.7,
    "n_coeff": 5,
    "n_coeff_1": 5,
    "n_coeff_2": 0,
    "n_coeff_3": 0,
    "coeff": [
      6.6247,
      -7.260e2,
      -3.504e5,
      2.724e7,
      -8.582e8,
      0.0
    ],
    "exponents": [
      0.0,
      -1.0,
      -2.0,
      -3.0,
      -4.0,
      0.0
    ]
  },
  "SRK": {
    "TWU-1": {
      "ref": "tcRK",
      "bib_reference": "10.1016/j.fluid.2016.09.003",
      "correlation": [
        0.1749,
        0.8686,
        2.2761
      ]
    },
    "MC-1": {
      "ref": "Chapoy2005",
      "bib_reference": "Thesis by Antonin Chapoy (2005)",
      "correlation": [
        0.641,
        -0.183,
        0.513
      ]
    },
    "volume_shift": {
      "ref": "tcRK",
      "bib_reference": "10.1016/j.fluid.2016.09.003",
      "ciA": 3.0175e-06,
      "ciB": 0.0,
      "ciC": 0.0,
      "correlation": 1
    }
  },
  "PR": {
    "TWU-1": {
      "ref": "tcPR",
      "bib_reference": "10.1016/j.fluid.2016.09.003",
      "correlation": [
        0.112,
        0.8688,
        2.2735
      ]
    },
    "MC-1": {
      "ref": "Chapoy2005",
      "bib_reference": "Thesis by Antonin Chapoy (2005)",
      "correlation": [
        0.507,
        0.008,
        0.342
      ]
    },
    "volume_shift": {
      "ref": "tcPR",
      "bib_reference": "10.1016/j.fluid.2016.09.003",
      "ciA": -2.5055999999999998e-06,
      "ciB": 0.0,
      "ciC": 0.0,
      "correlation": 1
    }
  },
  "PC-SAFT-1": {
    "m": 1.6941,
    "sigma": 3.0214E-10,
    "eps_depth_divk": 226.790,
    "eps": 0.0,
    "beta": 0.0,
    "assoc_scheme": "None",
    "bib_reference": "Kontogeorgis & Folas (2010). Doi: 10.1002/9780470747537",
    "ref": "Default/Kontogeorgis_Folas2001"
  },
  "PC-SAFT-2": {
    "m": 1.355,
    "sigma": 3.309E-10,
    "eps_depth_divk": 234.250,
    "eps": 6491.932412254049,
    "beta": 0.0010,
    "assoc_scheme": "2B",
    "bib_reference": "Tang & Gross (2010). Doi: 10.1016/j.fluid.2010.02.004",
    "ref": "Default/Tang_Gross2010"
  },
  "SAFTVRMIE-1": {
    "m": 1.0,
    "sigma": 3.7820E-10,
    "eps_depth_divk": 243.28,
    "lambda_a": 6.0000,
    "lambda_r": 31.311,
    "mass": 5.659E-26,
    "eps": 585.72,
    "beta": 1880.4E-30,
    "assoc_scheme": "4C",
    "fh_order": 0,
    "bib_reference": "Dufal (2015) - 10.1080/00268976.2015.1029027",
    "ref": "DEFAULT/Dufal2015"
  }
}
