{
  "ident": "H2",
  "formula": "H2",
  "cas_number": "1333-74-0",
  "InChI": "1S/H2/h1H",
  "structure": "H:2",
  "name": "HYDROGEN",
  "aliases": [
    "Hydrogen",
    "R702"
  ],
  "mol_weight": 2.016,
  "critical": {
    "ref": "Default",
    "bib_reference": "",
    "temperature": 33.145,
    "pressure": 1296400.0,
    "compressibility": 0.305
  },
  "triple": {
    "ref": "Default",
    "bib_reference": "",
    "temperature": 0.0,
    "pressure": 0.0
  },
  "acentric_factor": {
    "ref": "Default",
    "bib_reference": "",
    "acf": -0.22
  },
  "boiling_temperature": {
    "bib_reference": "",
    "temperature": 20.4
  },
  "saturation": {
    "ref": "Default",
    "bib_reference": "",
    "correlation": 1,
    "ant": [
      13.6333,
      164.9,
      3.19
    ],
    "Tmin": 14.0,
    "Tmax": 25.0
  },
  "ideal_heat_capacity-1": {
    "ref": "MEOS/Default",
    "bib_reference": "Leachman (2009), DOI: 10.1063/1.3160306",
    "correlation": 13,
    "cp": [
      2.5,
      1.616,
      531.0,
      -0.4117,
      751.0,
      -0.792,
      1989.0,
      0.758,
      2484.0,
      1.217,
      6859.0
    ],
    "Tmin": 13.957,
    "Tmax": 1000.0
  },
  "reference_state": {
    "enthalpy_bib_reference": "",
    "enthalpy": 0.0,
    "entropy_bib_reference": "https://webbook.nist.gov : Cox, Wagman, et al., 1984",
    "entropy_ref_state": "1BAR",
    "entropy": 130.680
  },
  "rackett_factor": {
    "bib_reference": "",
    "Zra": 0.306
  },
  "dipole_moment": {
    "mu": 0.0,
    "bib_reference": ""
  },
  "quadrupole_moment": {
    "Q": 0.0,
    "bib_reference": ""
  },
  "melting_curve": {
    "bib_reference": "",
    "ref": "DEFAULT",
    "correlation": "ML-1",
    "triple_temperature": 13.957,
    "maximum_temperature": 400.0,
    "reducing_pressure": 7.357800E+03,
    "reducing_temperature": 13.957,
    "n_coeff": 3,
    "n_coeff_1": 1,
    "n_coeff_2": 2,
    "n_coeff_3": 0,
    "coeff": [
      1.0,
      5626.3,
      2717.2,
      0.0,
      0.0,
      0.0
    ],
    "exponents": [
      0.0,
      1.0,
      1.83,
      0.0,
      0.0,
      0.0
    ]
  },
  "sublimation_curve": {
    "bib_reference": "Lemmon, E.W. (2003)",
    "ref": "DEFAULT",
    "correlation": "SL-3",
    "triple_temperature": 13.957,
    "minimum_temperature": 0.0,
    "reducing_pressure": 7.700000E+03,
    "reducing_temperature": 13.957,
    "n_coeff": 1,
    "n_coeff_1": 0,
    "n_coeff_2": 1,
    "n_coeff_3": 0,
    "coeff": [
      -8.065,
      0.0,
      0.0,
      0.0,
      0.0,
      0.0
    ],
    "exponents": [
      0.93,
      0.0,
      0.0,
      0.0,
      0.0,
      0.0
    ]
  },
  "SRK": {
    "TWU-1": {
      "ref": "tcRK",
      "bib_reference": "10.1016/j.fluid.2016.09.003",
      "correlation": [
        0.9444,
        3.0087,
        0.1762
      ]
    },
    "MC-1": {
      "ref": "Chapoy2005",
      "bib_reference": "Thesis by Antonin Chapoy (2005)",
      "correlation": [
        0.161,
        -0.225,
        -0.232
      ]
    },
    "volume_shift": {
      "ref": "tcRK",
      "bib_reference": "10.1016/j.fluid.2016.09.003",
      "ciA": -1.3448999999999998e-06,
      "ciB": 0.0,
      "ciC": 0.0,
      "correlation": 1
    }
  },
  "PR": {
    "TWU-1": {
      "ref": "tcPR",
      "bib_reference": "10.1016/j.fluid.2016.09.003",
      "correlation": [
        1.5147,
        -3.7959,
        -0.1377
      ]
    },
    "TWU-2": {
      "ref": "QuantumCubic",
      "bib_reference": "10.1016/j.fluid.2020.112790",
      "correlation": [
        156.21,
        -0.0062072,
        5.047
      ]
    },
    "MC-1": {
      "ref": "Chapoy2005",
      "bib_reference": "Thesis by Antonin Chapoy (2005)",
      "correlation": [
        0.095,
        -0.275,
        -0.029
      ]
    },
    "volume_shift-1": {
      "ref": "tcPR",
      "bib_reference": "10.1016/j.fluid.2016.09.003",
      "ciA": -5.338599999999999e-06,
      "ciB": 0.0,
      "ciC": 0.0,
      "correlation": 1
    },
    "volume_shift-2": {
      "ref": "QuantumCubic",
      "bib_reference": "10.1016/j.fluid.2020.112790",
      "ciA": -3.8139e-06,
      "ciB": 0.0,
      "ciC": 0.0,
      "correlation": 1
    }
  },
  "SAFTVRMIE-1": {
    "m": 1.000,
    "sigma": 3.2574E-10,
    "eps_depth_divk": 17.9310,
    "lambda_a": 6.0000,
    "lambda_r": 8.0000,
    "mass": 3.3472E-27,
    "eps": 0.0000,
    "beta": 0.0000,
    "assoc_scheme": "None",
    "fh_order": 0,
    "bib_reference": "Aasen 2019, doi: 10.1063/1.5111364",
    "ref": "DEFAULT/AASEN2019-FH0"
  },
  "SAFTVRMIE-2": {
    "m": 1.000,
    "sigma": 3.0243E-10,
    "eps_depth_divk": 26.7060,
    "lambda_a": 6.0000,
    "lambda_r": 9.0000,
    "mass": 3.3472E-27,
    "eps": 0.0000,
    "beta": 0.0000,
    "assoc_scheme": "None",
    "fh_order": 1,
    "bib_reference": "Aasen 2019, doi: 10.1063/1.5111364",
    "ref": "AASEN2019-FH1"
  },
  "SAFTVRMIE-3": {
    "m": 1.000,
    "sigma": 2.9195E-10,
    "eps_depth_divk": 55.7290,
    "lambda_a": 6.0000,
    "lambda_r": 20.0000,
    "mass": 3.3472E-27,
    "eps": 0.0000,
    "beta": 0.0000,
    "assoc_scheme": "None",
    "fh_order": 2,
    "bib_reference": "Aasen 2019, doi: 10.1063/1.5111364",
    "ref": "AASEN2019-FH2"
  },
  "SAFTVRMIE-4": {
    "m": 1.000,
    "sigma": 3.5333E-10,
    "eps_depth_divk": 14.3120,
    "lambda_a": 6.0000,
    "lambda_r": 12.0000,
    "mass": 3.3472E-27,
    "eps": 0.0000,
    "beta": 0.0000,
    "assoc_scheme": "None",
    "fh_order": 0,
    "bib_reference": "Aasen 2019, doi: 10.1063/1.5111364",
    "ref": "AASEN2019-FH0-LJ"
  },
  "SAFTVRMIE-5": {
    "m": 1.000,
    "sigma": 3.0225E-10,
    "eps_depth_divk": 33.0960,
    "lambda_a": 6.0000,
    "lambda_r": 12.0000,
    "mass": 3.3472E-27,
    "eps": 0.0000,
    "beta": 0.0000,
    "assoc_scheme": "None",
    "fh_order": 1,
    "bib_reference": "Aasen 2019, doi: 10.1063/1.5111364",
    "ref": "AASEN2019-FH1-LJ"
  },
  "SAFTVRMIE-6": {
    "m": 1.000,
    "sigma": 2.9324E-10,
    "eps_depth_divk": 40.3210,
    "lambda_a": 6.0000,
    "lambda_r": 12.0000,
    "mass": 3.3472E-27,
    "eps": 0.0000,
    "beta": 0.0000,
    "assoc_scheme": "None",
    "fh_order": 2,
    "bib_reference": "Aasen 2019, doi: 10.1063/1.5111364",
    "ref": "AASEN2019-FH2-LJ"
  },
  "SAFTVRMIE-7": {
    "m": 1.000,
    "sigma": 3.1980E-10,
    "eps_depth_divk": 14.4920,
    "lambda_a": 6.0000,
    "lambda_r": 6.4709,
    "mass": 3.3472E-27,
    "eps": 0.0000,
    "beta": 0.0000,
    "assoc_scheme": "None",
    "fh_order": 0,
    "bib_reference": "HYVA parameters with non-integer repulsive exponent",
    "ref": "HYVA-FH0"
  },
  "SAFTVRMIE-8": {
    "m": 1.000,
    "sigma": 3.0022E-10,
    "eps_depth_divk": 28.3490,
    "lambda_a": 6.0000,
    "lambda_r": 9.5413,
    "mass": 3.3472E-27,
    "eps": 0.0000,
    "beta": 0.0000,
    "assoc_scheme": "None",
    "fh_order": 1,
    "bib_reference": "HYVA parameters with non-integer repulsive exponent",
    "ref": "HYVA-FH1"
  },
  "SAFTVRMIE-9": {
    "m": 1.000,
    "sigma": 2.9209E-10,
    "eps_depth_divk": 53.0700,
    "lambda_a": 6.0000,
    "lambda_r": 18.0330,
    "mass": 3.3472E-27,
    "eps": 0.0000,
    "beta": 0.0000,
    "assoc_scheme": "None",
    "fh_order": 2,
    "bib_reference": "HYVA parameters with non-integer repulsive exponent",
    "ref": "HYVA-FH2"
  },
  "SAFTVRMIE-10": {
    "m": 1.000,
    "sigma": 3.0459E-10,
    "eps_depth_divk": 33.4340,
    "lambda_a": 6.0000,
    "lambda_r": 12.0000,
    "mass": 3.3472E-27,
    "eps": 0.0000,
    "beta": 0.0000,
    "assoc_scheme": "None",
    "fh_order": 0,
    "bib_reference": "Trejos et al. 2013, doi: 10.1063/1.4829769",
    "ref": "TREJOS2013"
  }
}
