{
  "ident": "IC5",
  "formula": "C5H12",
  "cas_number": "78-78-4",
  "name": "ISOPENTANE",
  "aliases": [
    "Iso-Pentane",
    "I-Pentane",
    "2-methylbutane"
  ],
  "mol_weight": 72.151,
  "critical": {
    "ref": "Default",
    "bib_reference": "",
    "temperature": 460.4,
    "pressure": 3384300.0,
    "compressibility": 0.271
  },
  "triple": {
    "ref": "Default",
    "bib_reference": "",
    "temperature": 0.0,
    "pressure": 0.0
  },
  "acentric_factor": {
    "ref": "Default",
    "bib_reference": "",
    "acf": 0.227
  },
  "boiling_temperature": {
    "bib_reference": "",
    "temperature": 301.0
  },
  "saturation": {
    "ref": "Default",
    "bib_reference": "",
    "correlation": 1,
    "ant": [
      15.6338,
      2348.67,
      -40.05
    ],
    "Tmin": 216.0,
    "Tmax": 322.0
  },
  "ideal_heat_capacity-1": {
    "ref": "Default",
    "bib_reference": "",
    "correlation": 2,
    "cp": [
      64.252075,
      -0.1319,
      0.003541156,
      -1.333225e-06,
      2.51463e-10,
      -1.29589e-14,
      4.572976,
      0.0,
      0.0,
      0.0
    ],
    "Tmin": -20.0,
    "Tmax": 1200.0
  },
  "reference_state": {
    "bib_reference": "",
    "enthalpy": 0.0,
    "entropy": 0.0
  },
  "standard_formation_energy": {
    "bib_reference": "",
    "enthalpy": 0.0,
    "gibbs": 0.0
  },
  "rackett_factor": {
    "bib_reference": "",
    "Zra": 0.2717
  },
  "dipole_moment": {
    "mu": 0.0,
    "bib_reference": ""
  },
  "quadrupole_moment": {
    "Q": 0.0,
    "bib_reference": ""
  },
  "melting_curve": {
    "bib_reference": "DOI: 10.1063/1.1725068",
    "ref": "DEFAULT",
    "correlation": "ML-1",
    "triple_temperature": 112.65,
    "maximum_temperature": 2000.0,
    "reducing_pressure": 8.952000E-05,
    "reducing_temperature": 112.65,
    "n_coeff": 2,
    "n_coeff_1": 2,
    "n_coeff_2": 0,
    "n_coeff_3": 0,
    "coeff": [
      -7127700000000.0,
      7127700000001.0,
      0.0,
      0.0,
      0.0,
      0.0
    ],
    "exponents": [
      0.0,
      1.563,
      0.0,
      0.0,
      0.0,
      0.0
    ]
  },
  "SRK": {
    "MC-1": {
      "ref": "Default",
      "bib_reference": "10.1016/j.fluid.2005.11.010",
      "correlation": [
        0.8767,
        -0.6043,
        1.4025
      ]
    },
    "MC-2": {
      "ref": "Chapoy2005",
      "bib_reference": "Thesis by Antonin Chapoy (2005)",
      "correlation": [
        0.876,
        -0.386,
        0.66
      ]
    },
    "TWU-1": {
      "ref": "tcRK",
      "bib_reference": "10.1016/j.fluid.2016.09.003",
      "correlation": [
        0.2374,
        0.8548,
        2.4736
      ]
    },
    "volume_shift": {
      "ref": "tcRK",
      "bib_reference": "10.1016/j.fluid.2016.09.003",
      "ciA": 1.3888099999999998e-05,
      "ciB": 0.0,
      "ciC": 0.0,
      "correlation": 1
    }
  },
  "PR": {
    "MC-1": {
      "ref": "Default",
      "bib_reference": "10.1016/j.fluid.2005.11.010",
      "correlation": [
        0.8767,
        -0.6043,
        1.4025
      ]
    },
    "MC-2": {
      "ref": "Chapoy2005",
      "bib_reference": "Thesis by Antonin Chapoy (2005)",
      "correlation": [
        0.724,
        -0.166,
        0.515
      ]
    },
    "TWU-1": {
      "ref": "tcPR",
      "bib_reference": "10.1016/j.fluid.2016.09.003",
      "correlation": [
        0.2084,
        0.8418,
        2.1382
      ]
    },
    "volume_shift": {
      "ref": "tcPR",
      "bib_reference": "10.1016/j.fluid.2016.09.003",
      "ciA": -3.6211e-06,
      "ciB": 0.0,
      "ciC": 0.0,
      "correlation": 1
    }
  },
  "PC-SAFT-1": {
    "m": 2.562,
    "sigma": 3.8296E-10,
    "eps_depth_divk": 230.750,
    "eps": 0.0,
    "beta": 0.0,
    "assoc_scheme": "None",
    "bib_reference": "Kontogeorgis & Folas (2010). Doi: 10.1002/9780470747537",
    "ref": "Default/Kontogeorgis_Folas2001"
  }
}
