{
  "ident": "IC4",
  "formula": "C4H10",
  "cas_number": "75-28-5",
  "InChI": "1S/C4H10/c1-4(2)3/h4H,1-3H3",
  "structure": "C:4;H:10",
  "name": "ISOBUTANE",
  "aliases": [
    "Iso-Butane",
    "IButane",
    "2-MethylPropane"
  ],
  "mol_weight": 58.124,
  "critical": {
    "ref": "Default",
    "bib_reference": "",
    "temperature": 408.1,
    "pressure": 3647700.0,
    "compressibility": 0.283
  },
  "triple": {
    "ref": "Default",
    "bib_reference": "",
    "temperature": 0.0,
    "pressure": 0.0
  },
  "acentric_factor": {
    "ref": "Default",
    "bib_reference": "",
    "acf": 0.176
  },
  "boiling_temperature": {
    "bib_reference": "",
    "temperature": 261.3
  },
  "saturation": {
    "ref": "Default",
    "bib_reference": "",
    "correlation": 1,
    "ant": [
      15.5381,
      2032.73,
      -33.15
    ],
    "Tmin": 187.0,
    "Tmax": 280.0
  },
  "ideal_heat_capacity-1": {
    "ref": "Default",
    "bib_reference": "",
    "correlation": 2,
    "cp": [
      26.744208,
      0.195448,
      0.002523143,
      1.95651e-07,
      -7.72615e-10,
      2.386087e-13,
      3.466595,
      0.0,
      0.0,
      0.0
    ],
    "Tmin": -75.0,
    "Tmax": 1200.0
  },
  "reference_state": {
    "enthalpy_bib_reference": "https://webbook.nist.gov : Pittam and Pilcher, 1972",
    "enthalpy_ref_state": "1ATM",
    "enthalpy": -134.2e3,
    "entropy_bib_reference": "HSC Chemistry 9",
    "entropy_ref_state": "0BAR",
    "entropy": 295.500
  },
  "standard_formation_energy": {
    "bib_reference": "ISBN: 978-0070116825",
    "enthalpy": -134990.0,
    "gibbs": -21440.0
  },
  "rackett_factor": {
    "bib_reference": "",
    "Zra": 0.2754
  },
  "dipole_moment": {
    "mu": 0.0,
    "bib_reference": ""
  },
  "quadrupole_moment": {
    "Q": 0.0,
    "bib_reference": ""
  },
  "melting_curve": {
    "bib_reference": "DOI: 10.1063/1.1901687",
    "ref": "DEFAULT",
    "correlation": "ML-1",
    "triple_temperature": 113.73,
    "maximum_temperature": 575.0,
    "reducing_pressure": 2.289100E-02,
    "reducing_temperature": 113.73,
    "n_coeff": 2,
    "n_coeff_1": 2,
    "n_coeff_2": 0,
    "n_coeff_3": 0,
    "coeff": [
      -1953637129.0,
      1953637130.0,
      0.0,
      0.0,
      0.0,
      0.0
    ],
    "exponents": [
      0.0,
      6.12,
      0.0,
      0.0,
      0.0,
      0.0
    ]
  },
  "SRK": {
    "MC-1": {
      "ref": "Default",
      "bib_reference": "10.1016/j.fluid.2005.11.010",
      "correlation": [
        0.8288,
        -0.8285,
        2.3201
      ]
    },
    "MC-2": {
      "ref": "Chapoy2005",
      "bib_reference": "Thesis by Antonin Chapoy (2005)",
      "correlation": [
        0.807,
        -0.432,
        0.91
      ]
    },
    "TWU-1": {
      "ref": "tcRK",
      "bib_reference": "10.1016/j.fluid.2016.09.003",
      "correlation": [
        0.2313,
        0.8625,
        2.3598
      ]
    },
    "volume_shift": {
      "ref": "tcRK",
      "bib_reference": "10.1016/j.fluid.2016.09.003",
      "ciA": 1.04875e-05,
      "ciB": 0.0,
      "ciC": 0.0,
      "correlation": 1
    }
  },
  "PR": {
    "MC-1": {
      "ref": "Default",
      "bib_reference": "10.1016/j.fluid.2005.11.010",
      "correlation": [
        0.8288,
        -0.8285,
        2.3201
      ]
    },
    "MC-2": {
      "ref": "Chapoy2005",
      "bib_reference": "Thesis by Antonin Chapoy (2005)",
      "correlation": [
        0.652,
        -0.149,
        0.599
      ]
    },
    "TWU-1": {
      "ref": "tcPR",
      "bib_reference": "10.1016/j.fluid.2016.09.003",
      "correlation": [
        0.1575,
        0.8601,
        2.3951
      ]
    },
    "volume_shift": {
      "ref": "tcPR",
      "bib_reference": "10.1016/j.fluid.2016.09.003",
      "ciA": -4.0705e-06,
      "ciB": 0.0,
      "ciC": 0.0,
      "correlation": 1
    }
  },
  "PC-SAFT-1": {
    "m": 2.2616,
    "sigma": 3.7574E-10,
    "eps_depth_divk": 216.530,
    "eps": 0.0,
    "beta": 0.0,
    "assoc_scheme": "None",
    "bib_reference": "Kontogeorgis & Folas (2010). Doi: 10.1002/9780470747537",
    "ref": "Default/Kontogeorgis_Folas2001"
  }
}
