{
  "ident": "KR",
  "formula": "KR",
  "cas_number": "7439-90-9",
  "name": "KRYPTON",
  "aliases": [
    "Krypton"
  ],
  "mol_weight": 83.798,
  "critical": {
    "ref": "Default",
    "bib_reference": "",
    "temperature": 209.48,
    "pressure": 5525000.0,
    "compressibility": 0.291
  },
  "triple": {
    "ref": "Default",
    "bib_reference": "",
    "temperature": 115.775,
    "pressure": 73530
  },
  "acentric_factor": {
    "ref": "Default",
    "bib_reference": "",
    "acf": -0.004
  },
  "boiling_temperature": {
    "bib_reference": "",
    "temperature": 119.93
  },
  "saturation": {
    "ref": "Default",
    "bib_reference": "",
    "correlation": 1,
    "ant": [
      15.233,
      700.51,
      -5.84
    ],
    "Tmin": 81.0,
    "Tmax": 94.0
  },
  "ideal_heat_capacity-1": {
    "ref": "Default",
    "bib_reference": "NIST-Chase1998",
    "correlation": 5,
    "cp": [
      20.78603,
      4.850638e-10,
      -1.582916e-10,
      1.525102e-11,
      3.196347e-11,
      0.0,
      0.0,
      0.0,
      0.0,
      0.0
    ],
    "Tmin": 0.0,
    "Tmax": 0.0
  },
  "reference_state": {
    "bib_reference": "",
    "enthalpy": 0.0,
    "entropy": 0.0
  },
  "standard_formation_energy": {
    "bib_reference": "",
    "enthalpy": 0.0,
    "gibbs": 0.0
  },
  "rackett_factor": {
    "bib_reference": "",
    "Zra": 0.3085
  },
  "dipole_moment": {
    "mu": 0.0,
    "bib_reference": ""
  },
  "quadrupole_moment": {
    "Q": 0.0,
    "bib_reference": ""
  },
  "melting_curve": {
    "bib_reference": "DOI: 10.1016/0031-8914(62)90096-4",
    "ref": "DEFAULT",
    "correlation": "ML-1",
    "triple_temperature": 115.775,
    "maximum_temperature": 800.0,
    "reducing_pressure": 1.013250E+05,
    "reducing_temperature": 1.0,
    "n_coeff": 2,
    "n_coeff_1": 2,
    "n_coeff_2": 0,
    "n_coeff_3": 0,
    "coeff": [
      -2345.921,
      1.080476685,
      0.0,
      0.0,
      0.0,
      0.0
    ],
    "exponents": [
      0.0,
      1.6169841,
      0.0,
      0.0,
      0.0,
      0.0
    ]
  },
  "sublimation_curve": {
    "bib_reference": "Lemmon, E.W. (2002)",
    "ref": "DEFAULT",
    "correlation": "SL-3",
    "triple_temperature": 115.775,
    "minimum_temperature": 0.0,
    "reducing_pressure": 7.319700E+04,
    "reducing_temperature": 115.775,
    "n_coeff": 1,
    "n_coeff_1": 0,
    "n_coeff_2": 1,
    "n_coeff_3": 0,
    "coeff": [
      -11.5616,
      0.0,
      0.0,
      0.0,
      0.0,
      0.0
    ],
    "exponents": [
      1.0,
      0.0,
      0.0,
      0.0,
      0.0,
      0.0
    ]
  },
  "SRK": {},
  "PR": {},
  "PC-SAFT-1": {
  "m": 1.0,
  "sigma": 3.63E-10,
  "eps_depth_divk": 163.1,
  "eps": 0.0,
  "beta": 0.0,
  "assoc_scheme": "None",
  "bib_reference": "Sauer & Gross (2017). DOI: 10.1021/acs.iecr.6b04551",
  "ref": "Default/Sauer_Gross_2017"
  },
  "SAFTVRMIE-1": {
    "m": 1.000,
    "sigma": 3.6400E-10,
    "eps_depth_divk": 166.6600,
    "lambda_a": 6.0000,
    "lambda_r": 12.0000,
    "mass": 1.3914985275103401e-25,
    "eps": 0.0000,
    "beta": 0.0000,
    "assoc_scheme": "None",
    "fh_order": 0,
    "bib_reference": "Irma et. al (1999) ISSN : 1029-0435/0892-7022",
    "ref": "DEFAULT"
  }
}
