{
  "ident": "LJF",
  "formula": "LJF",
  "cas_number": "",
  "name": "LENNARD-JONES_FLUID",
  "aliases": [
    "LennardJonesFluid",
    "6-12",
    "12-6"
  ],
  "mol_weight": 1.0,
  "critical": {
    "ref": "Default",
    "bib_reference": "",
    "temperature": 1.32,
    "pressure": 0.13,
    "compressibility": 0.31
  },
  "triple": {
    "ref": "Default",
    "bib_reference": "",
    "temperature": 0.0,
    "pressure": 0.0
  },
  "acentric_factor": {
    "ref": "Default",
    "bib_reference": "",
    "acf": 0.3177
  },
  "boiling_temperature": {
    "bib_reference": "",
    "temperature": 0.8
  },
  "saturation": {
    "ref": "Default",
    "bib_reference": "",
    "correlation": 1,
    "ant": [
      0.0,
      0.0,
      0.0
    ],
    "Tmin": 0.0,
    "Tmax": 0.0
  },
  "ideal_heat_capacity-1": {
    "ref": "Default",
    "bib_reference": "",
    "correlation": 7,
    "cp": [
      0.0,
      0.0,
      0.0,
      0.0,
      0.0,
      0.0,
      0.0,
      0.0,
      0.0,
      0.0
    ],
    "Tmin": 300.0,
    "Tmax": 1500.0
  },
  "reference_state": {
    "bib_reference": "",
    "enthalpy": 0.0,
    "entropy": 0.0
  },
  "standard_formation_energy": {
    "bib_reference": "",
    "enthalpy": 0.0,
    "gibbs": 0.0
  },
  "rackett_factor": {
    "bib_reference": "",
    "Zra": -1.0
  },
  "dipole_moment": {
    "mu": 0.0,
    "bib_reference": ""
  },
  "quadrupole_moment": {
    "Q": 0.0,
    "bib_reference": ""
  },
  "SRK": {},
  "PR": {},
  "SAFTVRMIE-1": {
    "m": 1.000,
    "sigma": 3.0000E-10,
    "eps_depth_divk": 30.0000,
    "lambda_a": 6.0000,
    "lambda_r": 12.0000,
    "mass": 0.0000E+00,
    "eps": 0.0000,
    "beta": 0.0000,
    "assoc_scheme": "None",
    "fh_order": 0,
    "bib_reference": "",
    "ref": "DEFAULT"
  }
}
