{
  "ident": "MXYL",
  "formula": "C8H10",
  "cas_number": "108-38-3",
  "name": "M-XYLENE",
  "aliases": [
    "MetaXylene",
    "M-Xylene",
    "Meta-diMethylBenzene"
  ],
  "mol_weight": 106.167,
  "critical": {
    "ref": "Default",
    "bib_reference": "",
    "temperature": 617.05,
    "pressure": 3536000.0,
    "compressibility": 0.259
  },
  "triple": {
    "ref": "Default",
    "bib_reference": "",
    "temperature": 0.0,
    "pressure": 0.0
  },
  "acentric_factor": {
    "ref": "Default",
    "bib_reference": "",
    "acf": 0.326
  },
  "boiling_temperature": {
    "bib_reference": "",
    "temperature": 412.27
  },
  "saturation": {
    "ref": "Default",
    "bib_reference": "",
    "correlation": 2,
    "ant": [
      0.0,
      0.0,
      0.0
    ],
    "Tmin": 0.0,
    "Tmax": 0.0
  },
  "ideal_heat_capacity-1": {
    "ref": "Default",
    "bib_reference": "",
    "correlation": 7,
    "cp": [
      75680.0,
      339240.0,
      1496.0,
      224700.0,
      -675.9,
      0.0,
      0.0,
      0.0,
      0.0,
      0.0
    ],
    "Tmin": 200.0,
    "Tmax": 1500.0
  },
  "reference_state": {
    "bib_reference": "",
    "enthalpy": 0.0,
    "entropy": 0.0
  },
  "standard_formation_energy": {
    "bib_reference": "",
    "enthalpy": 0.0,
    "gibbs": 0.0
  },
  "rackett_factor": {
    "bib_reference": "10.1016/j.fluid.2016.09.003",
    "Zra": 0.2587
  },
  "dipole_moment": {
    "mu": 0.0,
    "bib_reference": ""
  },
  "quadrupole_moment": {
    "Q": 0.0,
    "bib_reference": ""
  },
  "SRK": {
    "TWU-1": {
      "ref": "tcRK",
      "bib_reference": "10.1016/j.fluid.2016.09.003",
      "correlation": [
        0.3492,
        0.8481,
        2.2617
      ]
    },
    "volume_shift": {
      "ref": "tcRK",
      "bib_reference": "10.1016/j.fluid.2016.09.003",
      "ciA": 2.7094899999999997e-05,
      "ciB": 0.0,
      "ciC": 0.0,
      "correlation": 1
    }
  },
  "PR": {
    "TWU-1": {
      "ref": "tcPR",
      "bib_reference": "10.1016/j.fluid.2016.09.003",
      "correlation": [
        0.3506,
        0.8332,
        1.8594
      ]
    },
    "volume_shift": {
      "ref": "tcPR",
      "bib_reference": "10.1016/j.fluid.2016.09.003",
      "ciA": 5.1447999999999994e-06,
      "ciB": 0.0,
      "ciC": 0.0,
      "correlation": 1
    }
  }
}
