{
  "ident": "MEOH",
  "formula": "CH4O",
  "cas_number": "67-56-1",
  "name": "METHANOL",
  "aliases": [
    "Methanol"
  ],
  "mol_weight": 32.042,
  "critical": {
    "ref": "Default",
    "bib_reference": "",
    "temperature": 512.6,
    "pressure": 8095900.0,
    "compressibility": 0.224
  },
  "triple": {
    "ref": "Default",
    "bib_reference": "",
    "temperature": 0.0,
    "pressure": 0.0
  },
  "acentric_factor": {
    "ref": "Default",
    "bib_reference": "",
    "acf": 0.559
  },
  "boiling_temperature": {
    "bib_reference": "",
    "temperature": 337.8
  },
  "saturation": {
    "ref": "Default",
    "bib_reference": "",
    "correlation": 1,
    "ant": [
      18.5875,
      3626.55,
      -34.29
    ],
    "Tmin": 257.0,
    "Tmax": 364.0
  },
  "ideal_heat_capacity-1": {
    "ref": "Default",
    "bib_reference": "",
    "correlation": 1,
    "cp": [
      5.052,
      0.01694,
      6.179e-06,
      -6.811e-09,
      0.0,
      0.0,
      0.0,
      0.0,
      0.0,
      0.0
    ],
    "Tmin": 0.0,
    "Tmax": 0.0
  },
  "reference_state": {
    "bib_reference": "",
    "enthalpy": 0.0,
    "entropy": 0.0
  },
  "standard_formation_energy": {
    "bib_reference": "",
    "enthalpy": 0.0,
    "gibbs": 0.0
  },
  "rackett_factor": {
    "bib_reference": "",
    "Zra": 0.2334
  },
  "dipole_moment": {
    "mu": 0.0,
    "bib_reference": ""
  },
  "quadrupole_moment": {
    "Q": 0.0,
    "bib_reference": ""
  },
  "SRK": {
    "TWU-1": {
      "ref": "tcRK",
      "bib_reference": "10.1016/j.fluid.2016.09.003",
      "correlation": [
        0.7082,
        0.9022,
        1.878
      ]
    },
    "volume_shift": {
      "ref": "tcRK",
      "bib_reference": "10.1016/j.fluid.2016.09.003",
      "ciA": 1.6954299999999998e-05,
      "ciB": 0.0,
      "ciC": 0.0,
      "correlation": 1
    },
    "CPA-1": {
      "ref": "Default/Kontogeorgis2008",
      "bib_reference": "10.2516/ogst:2008025",
      "a0": 4.0531E+5,
      "b": 0.030978,
      "alphaParams": [0.43102, 0.0, 0.0],
      "alphaCorr": "Classic",
      "eps": 24591.0,
      "beta": 16.1E-3,
      "assoc_scheme": "2B"
    }
  },
  "PR": {
    "TWU-1": {
      "ref": "tcPR",
      "bib_reference": "10.1016/j.fluid.2016.09.003",
      "correlation": [
        0.6755,
        0.9141,
        1.7586
      ]
    },
    "volume_shift": {
      "ref": "tcPR",
      "bib_reference": "10.1016/j.fluid.2016.09.003",
      "ciA": 9.186500000000001e-06,
      "ciB": 0.0,
      "ciC": 0.0,
      "correlation": 1
    }
  },
  "PC-SAFT-1": {
    "m": 2.100,
    "sigma": 2.7998E-10,
    "eps_depth_divk": 197.230,
    "eps": 21077.162737018461,
    "beta": 0.430921792317,
    "assoc_scheme": "2C",
    "bib_reference": "de Villiers et al. (2011). Doi: 10.1021/ie200521k",
    "ref": "Default/deVilliers2011"
  },
  "SAFTVRMIE-1": {
    "m": 1.7989,
    "sigma": 3.1425E-10,
    "eps_depth_divk": 276.92,
    "lambda_a": 6.0000,
    "lambda_r": 16.968,
    "mass": 0.0,
    "eps": 2156.0,
    "beta": 222.18E-30,
    "assoc_scheme": "3B",
    "fh_order": 0,
    "bib_reference": "Dufal (2015) - 10.1080/00268976.2015.1029027",
    "ref": "DEFAULT/Dufal2015"
  }
}
