{
  "ident": "MEG",
  "formula": "C2H6O2",
  "cas_number": "107-21-1",
  "InChI": "1S/C2H6O2/c3-1-2-4/h3-4H,1-2H2",
  "structure": "C:2;H:6;O:2",
  "name": "ETHYLENE GLYCOL",
  "aliases": [
    "MonoEthyleneGlycol",
    "EthyleneGlycol",
    "Ethane-1_2-diol"
  ],
  "mol_weight": 62.07,
  "critical": {
    "ref": "Default",
    "bib_reference": "",
    "temperature": 720.0,
    "pressure": 8200000.0,
    "compressibility": 0.2616
  },
  "triple": {
    "ref": "Default",
    "bib_reference": "",
    "temperature": 0.0,
    "pressure": 0.0
  },
  "acentric_factor": {
    "ref": "Default",
    "bib_reference": "",
    "acf": 0.5347
  },
  "boiling_temperature": {
    "bib_reference": "",
    "temperature": 470.25
  },
  "saturation": {
    "ref": "Default",
    "bib_reference": "",
    "correlation": 1,
    "ant": [
      18.90908,
      4977.975,
      -64.721
    ],
    "Tmin": 200.0,
    "Tmax": 720.0
  },
  "ideal_heat_capacity-1": {
    "ref": "Default",
    "bib_reference": "",
    "correlation": 2,
    "cp": [
      0.54467,
      0.0011854,
      0.0,
      0.0,
      0.0,
      0.0,
      0.0,
      0.0,
      0.0,
      0.0
    ],
    "Tmin": -22.0,
    "Tmax": 150.0
  },
  "reference_state": {
    "enthalpy_bib_reference": "https://webbook.nist.gov : Knauth and Sabbah, 1990",
    "enthalpy": -394.4e3,
    "entropy_bib_reference": "https://webbook.nist.gov : Chao J., 1986",
    "entropy_ref_state": "1ATM",
    "entropy": 311.84
  },
  "rackett_factor": {
    "bib_reference": "10.1016/j.fluid.2016.09.003",
    "Zra": 0.2424
  },
  "dipole_moment": {
    "mu": 0.0,
    "bib_reference": ""
  },
  "quadrupole_moment": {
    "Q": 0.0,
    "bib_reference": ""
  },
  "SRK": {
    "TWU-1": {
      "ref": "tcRK",
      "bib_reference": "10.1016/j.fluid.2016.09.003",
      "correlation": [
        1.5454,
        1,
        0.7625
      ]
    },
    "volume_shift": {
      "ref": "tcRK",
      "bib_reference": "10.1016/j.fluid.2016.09.003",
      "ciA": 1.9295399999999998e-05,
      "ciB": 0.0,
      "ciC": 0.0,
      "correlation": 1
    }
  },
  "PR": {
    "TWU-1": {
      "ref": "tcPR",
      "bib_reference": "10.1016/j.fluid.2016.09.003",
      "correlation": [
        1.5753,
        1,
        0.6614
      ]
    },
    "volume_shift": {
      "ref": "tcPR",
      "bib_reference": "10.1016/j.fluid.2016.09.003",
      "ciA": 8.387e-06,
      "ciB": 0.0,
      "ciC": 0.0,
      "correlation": 1
    }
  }
}
