{
  "ident": "NC4",
  "formula": "C4H10",
  "cas_number": "106-97-8",
  "name": "N-BUTANE",
  "aliases": [
    "n-Butane",
    "Butane",
    "R600"
  ],
  "mol_weight": 58.124,
  "critical": {
    "ref": "Default",
    "bib_reference": "",
    "temperature": 425.2,
    "pressure": 3799700.0,
    "compressibility": 0.274
  },
  "triple": {
    "ref": "Default",
    "bib_reference": "",
    "temperature": 0.0,
    "pressure": 0.0
  },
  "acentric_factor": {
    "ref": "Default",
    "bib_reference": "",
    "acf": 0.193
  },
  "boiling_temperature": {
    "bib_reference": "",
    "temperature": 272.7
  },
  "saturation": {
    "ref": "Default",
    "bib_reference": "",
    "correlation": 1,
    "ant": [
      15.6782,
      2154.9,
      -34.42
    ],
    "Tmin": 195.0,
    "Tmax": 290.0
  },
  "ideal_heat_capacity-1": {
    "ref": "Default",
    "bib_reference": "",
    "correlation": 2,
    "cp": [
      17.283134,
      0.412696,
      0.002028601,
      7.02953e-07,
      -1.025871e-09,
      2.883394e-13,
      2.714861,
      0.0,
      0.0,
      0.0
    ],
    "Tmin": -75.0,
    "Tmax": 1200.0
  },
  "reference_state": {
    "bib_reference": "",
    "enthalpy": 0.0,
    "entropy": 0.0
  },
  "standard_formation_energy": {
    "bib_reference": "",
    "enthalpy": 0.0,
    "gibbs": 0.0
  },
  "rackett_factor": {
    "bib_reference": "",
    "Zra": 0.273
  },
  "dipole_moment": {
    "mu": 0.0,
    "bib_reference": ""
  },
  "quadrupole_moment": {
    "Q": 0.0,
    "bib_reference": ""
  },
  "melting_curve": {
    "bib_reference": "DOI: 10.1063/1.1901687",
    "ref": "DEFAULT",
    "correlation": "ML-1",
    "triple_temperature": 134.895,
    "maximum_temperature": 575.0,
    "reducing_pressure": 6.656600E-01,
    "reducing_temperature": 134.895,
    "n_coeff": 2,
    "n_coeff_1": 2,
    "n_coeff_2": 0,
    "n_coeff_3": 0,
    "coeff": [
      -558558235.4,
      558558236.4,
      0.0,
      0.0,
      0.0,
      0.0
    ],
    "exponents": [
      0.0,
      2.206,
      0.0,
      0.0,
      0.0,
      0.0
    ]
  },
  "SRK": {
    "MC-1": {
      "ref": "Default",
      "bib_reference": "10.1016/j.fluid.2005.11.010",
      "correlation": [
        0.8787,
        -0.9399,
        2.2666
      ]
    },
    "MC-2": {
      "ref": "Chapoy2005",
      "bib_reference": "Thesis by Antonin Chapoy (2005)",
      "correlation": [
        0.823,
        -0.267,
        0.402
      ]
    },
    "TWU-1": {
      "ref": "tcRK",
      "bib_reference": "10.1016/j.fluid.2016.09.003",
      "correlation": [
        0.2621,
        0.8669,
        2.2996
      ]
    },
    "volume_shift": {
      "ref": "tcRK",
      "bib_reference": "10.1016/j.fluid.2016.09.003",
      "ciA": 1.0917799999999999e-05,
      "ciB": 0.0,
      "ciC": 0.0,
      "correlation": 1
    },
    "CPA-1": {
      "ref": "Default/Kontogeorgis-Folas2010",
      "bib_reference": "10.1002/9780470747537",
      "a0": 13.14274E+5,
      "b": 0.072081,
      "alphaParams": [0.70771,0.0,0.0],
      "alphaCorr": "Classic",
      "eps": 0.0,
      "beta": 0.0,
      "assoc_scheme": "NONE"
    }
  },
  "PR": {
    "MC-1": {
      "ref": "Default",
      "bib_reference": "10.1016/j.fluid.2005.11.010",
      "correlation": [
        0.8787,
        -0.9399,
        2.2666
      ]
    },
    "MC-2": {
      "ref": "Chapoy2005",
      "bib_reference": "Thesis by Antonin Chapoy (2005)",
      "correlation": [
        0.677,
        -0.081,
        0.299
      ]
    },
    "TWU-1": {
      "ref": "tcPR",
      "bib_reference": "10.1016/j.fluid.2016.09.003",
      "correlation": [
        0.1867,
        0.8645,
        2.3327
      ]
    },
    "volume_shift": {
      "ref": "tcPR",
      "bib_reference": "10.1016/j.fluid.2016.09.003",
      "ciA": -3.5817999999999997e-06,
      "ciB": 0.0,
      "ciC": 0.0,
      "correlation": 1
    }
  },
  "PC-SAFT-1": {
    "m": 2.3316,
    "sigma": 3.7086E-10,
    "eps_depth_divk": 222.880,
    "eps": 0.0,
    "beta": 0.0,
    "assoc_scheme": "None",
    "bib_reference": "Kontogeorgis & Folas (2010). Doi: 10.1002/9780470747537",
    "ref": "Default/Kontogeorgis_Folas2001"
  },
  "SAFTVRMIE-1": {
    "m": 1.8514,
    "sigma": 4.0887E-10,
    "eps_depth_divk": 273.6400,
    "lambda_a": 6.0000,
    "lambda_r": 13.6500,
    "mass": 6.6890E-27,
    "eps": 0.0000,
    "beta": 0.0000,
    "assoc_scheme": "None",
    "fh_order": 0,
    "bib_reference": "Lafitte et al. 2013, doi: 10.1063/1.4819786",
    "ref": "DEFAULT"
  }
}
