{
  "ident": "NC10",
  "formula": "C10H22",
  "cas_number": "124-18-5",
  "InChI": "1S/C10H22/c1-3-5-7-9-10-8-6-4-2/h3-10H2,1-2H3",
  "structure": "C:10;H:22",
  "name": "N-DECANE",
  "aliases": [
    "n-Decane",
    "Decane"
  ],
  "mol_weight": 142.286,
  "critical": {
    "ref": "Default",
    "bib_reference": "",
    "temperature": 617.6,
    "pressure": 2107600.0,
    "compressibility": 0.247
  },
  "triple": {
    "ref": "Default",
    "bib_reference": "",
    "temperature": 0.0,
    "pressure": 0.0
  },
  "acentric_factor": {
    "ref": "Default",
    "bib_reference": "",
    "acf": 0.49
  },
  "boiling_temperature": {
    "bib_reference": "",
    "temperature": 447.3
  },
  "saturation": {
    "ref": "Default",
    "bib_reference": "",
    "correlation": 1,
    "ant": [
      16.0114,
      3456.8,
      -78.67
    ],
    "Tmin": 330.0,
    "Tmax": 476.0
  },
  "ideal_heat_capacity-1": {
    "ref": "Default",
    "bib_reference": "",
    "correlation": 2,
    "cp": [
      -6.96202,
      0.851375,
      -0.000263041,
      5.521816e-06,
      -5.631733e-09,
      1.8885443e-12,
      -0.412446,
      0.0,
      0.0,
      0.0
    ],
    "Tmin": -75.0,
    "Tmax": 700.0
  },
  "reference_state": {
    "enthalpy_bib_reference": "https://webbook.nist.gov : Prosen and Rossini, 1945",
    "enthalpy": -249.7e3,
    "entropy_bib_reference": "https://webbook.nist.gov : Scott D.W., 1974",
    "entropy_ref_state": "1ATM",
    "entropy": 545.8
  },
  "rackett_factor": {
    "bib_reference": "",
    "Zra": 0.2507
  },
  "dipole_moment": {
    "mu": 0.0,
    "bib_reference": ""
  },
  "quadrupole_moment": {
    "Q": 0.0,
    "bib_reference": ""
  },
  "SRK": {
    "TWU-1": {
      "ref": "tcRK",
      "bib_reference": "10.1016/j.fluid.2016.09.003",
      "correlation": [
        0.3553,
        0.831,
        2.7281
      ]
    },
    "volume_shift": {
      "ref": "tcRK",
      "bib_reference": "10.1016/j.fluid.2016.09.003",
      "ciA": 4.85857e-05,
      "ciB": 0.0,
      "ciC": 0.0,
      "correlation": 1
    },
    "CPA-1": {
      "ref": "Default/Kontogeorgis-Folas2010",
      "bib_reference": "10.1002/9780470747537",
      "a0": 47.389E+5,
      "b": 0.17865,
      "alphaParams": [1.13243,0.0,0.0],
      "alphaCorr": "Classic",
      "eps": 0.0,
      "beta": 0.0,
      "assoc_scheme": "NONE"
    }
  },
  "PR": {
    "TWU-1": {
      "ref": "tcPR",
      "bib_reference": "10.1016/j.fluid.2016.09.003",
      "correlation": [
        0.3677,
        0.8119,
        2.2188
      ]
    },
    "volume_shift": {
      "ref": "tcPR",
      "bib_reference": "10.1016/j.fluid.2016.09.003",
      "ciA": 1.2810499999999999e-05,
      "ciB": 0.0,
      "ciC": 0.0,
      "correlation": 1
    }
  },
  "PC-SAFT-1": {
    "m": 4.6627,
    "sigma": 3.8384E-10,
    "eps_depth_divk": 243.870,
    "eps": 0.0,
    "beta": 0.0,
    "assoc_scheme": "None",
    "bib_reference": "Kontogeorgis & Folas (2010). Doi: 10.1002/9780470747537",
    "ref": "Default/Kontogeorgis_Folas2001"
  },
  "SAFTVRMIE-1": {
    "m": 2.9976,
    "sigma": 4.5890E-10,
    "eps_depth_divk": 400.7900,
    "lambda_a": 6.0000,
    "lambda_r": 18.8850,
    "mass": 6.6890E-27,
    "eps": 0.0000,
    "beta": 0.0000,
    "assoc_scheme": "None",
    "fh_order": 0,
    "bib_reference": "Lafitte et al. 2013, doi: 10.1063/1.4819786",
    "ref": "DEFAULT"
  },
  "SAFTVRMIE-2": {
    "m": 3.000,
    "sigma": 4.5840E-10,
    "eps_depth_divk": 415.1900,
    "lambda_a": 6.0000,
    "lambda_r": 20.9200,
    "mass": 6.6890E-27,
    "eps": 0.0000,
    "beta": 0.0000,
    "assoc_scheme": "None",
    "fh_order": 0,
    "bib_reference": "Müller's mystery parameters for methane and decane where SAFT-VR Mie fails",
    "ref": "Muller"
  }
}
