{
  "ident": "NC22",
  "formula": "C22H46",
  "cas_number": "629-97-0",
  "name": "N-DOCOSANE",
  "aliases": [
    "n-Docosane",
    "Docosane"
  ],
  "mol_weight": 310.61,
  "critical": {
    "ref": "Default",
    "bib_reference": "",
    "temperature": 787.0,
    "pressure": 1060000.0,
    "compressibility": 0.24
  },
  "triple": {
    "ref": "Default",
    "bib_reference": "",
    "temperature": 0.0,
    "pressure": 0.0
  },
  "acentric_factor": {
    "ref": "Default",
    "bib_reference": "",
    "acf": 0.9722
  },
  "boiling_temperature": {
    "bib_reference": "",
    "temperature": 641.75
  },
  "saturation": {
    "ref": "Default",
    "bib_reference": "",
    "correlation": 1,
    "ant": [
      0.0,
      0.0,
      0.0
    ],
    "Tmin": 0.0,
    "Tmax": 0.0
  },
  "ideal_heat_capacity-1": {
    "ref": "Default",
    "bib_reference": "",
    "correlation": 7,
    "cp": [
      392560.0,
      1182000.0,
      1723.4,
      815780.0,
      785.13,
      0.0,
      0.0,
      0.0,
      0.0,
      0.0
    ],
    "Tmin": 300.0,
    "Tmax": 1500.0
  },
  "reference_state": {
    "bib_reference": "",
    "enthalpy": 0.0,
    "entropy": 0.0
  },
  "standard_formation_energy": {
    "bib_reference": "",
    "enthalpy": 0.0,
    "gibbs": 0.0
  },
  "rackett_factor": {
    "bib_reference": "",
    "Zra": 0.22995
  },
  "dipole_moment": {
    "mu": 0.0,
    "bib_reference": ""
  },
  "quadrupole_moment": {
    "Q": 0.0,
    "bib_reference": ""
  },
  "SRK": {
    "TWU-1": {
      "ref": "tcRK",
      "bib_reference": "10.1016/j.fluid.2016.09.003",
      "correlation": [
        0.5016,
        0.8082,
        3.1243
      ]
    },
    "volume_shift": {
      "ref": "tcRK",
      "bib_reference": "10.1016/j.fluid.2016.09.003",
      "ciA": 0.00017145609999999999,
      "ciB": 0.0,
      "ciC": 0.0,
      "correlation": 1
    }
  },
  "PR": {
    "TWU-1": {
      "ref": "tcPR",
      "bib_reference": "10.1016/j.fluid.2016.09.003",
      "correlation": [
        0.4788,
        0.799,
        2.8499
      ]
    },
    "volume_shift": {
      "ref": "tcPR",
      "bib_reference": "10.1016/j.fluid.2016.09.003",
      "ciA": 8.51555e-05,
      "ciB": 0.0,
      "ciC": 0.0,
      "correlation": 1
    }
  },
  "PC-SAFT-1": {
    "m": 8.7068,
    "sigma": 3.982E-10,
    "eps_depth_divk": 253.955,
    "eps": 0.0,
    "beta": 0.0,
    "assoc_scheme": "None",
    "bib_reference": "Kontogeorgis & Folas (2010). Doi: 10.1002/9780470747537",
    "ref": "Default/Kontogeorgis_Folas2001"
  },
  "SAFTVRMIE-1": {
    "m": 3.2519,
    "sigma": 4.7484E-10,
    "eps_depth_divk": 437.7200,
    "lambda_a": 6.0000,
    "lambda_r": 20.8620,
    "mass": 6.6890E-27,
    "eps": 0.0000,
    "beta": 0.0000,
    "assoc_scheme": "None",
    "fh_order": 0,
    "bib_reference": "Lafitte et al. 2013, doi: 10.1063/1.4819786",
    "ref": "DEFAULT"
  }
}
