{
  "ident": "NC12",
  "formula": "C12H26",
  "cas_number": "112-40-3",
  "InChI": "1S/C12H26/c1-3-5-7-9-11-12-10-8-6-4-2/h3-12H2,1-2H3",
  "structure": "C:12;H:26",
  "name": "N-DODECANE",
  "aliases": [
    "n-dodecane",
    "Dodecane"
  ],
  "mol_weight": 170.34,
  "critical": {
    "ref": "Default",
    "bib_reference": "",
    "temperature": 658.1,
    "pressure": 1817000.0,
    "compressibility": 0.2497
  },
  "triple": {
    "ref": "Default",
    "bib_reference": "",
    "temperature": 0.0,
    "pressure": 0.0
  },
  "acentric_factor": {
    "ref": "Default",
    "bib_reference": "",
    "acf": 0.574
  },
  "boiling_temperature": {
    "bib_reference": "",
    "temperature": 489.3
  },
  "saturation": {
    "ref": "Default",
    "bib_reference": "",
    "correlation": 1,
    "ant": [
      0.0,
      0.0,
      0.0
    ],
    "Tmin": 0.0,
    "Tmax": 0.0
  },
  "ideal_heat_capacity-1": {
    "ref": "Default",
    "bib_reference": "",
    "correlation": 8,
    "cp": [
      17.229,
      -0.007242,
      0.00031922,
      -4.2322e-07,
      1.7022e-10,
      0.0,
      0.0,
      0.0,
      0.0,
      0.0
    ],
    "Tmin": -20.0,
    "Tmax": 1200.0
  },
  "reference_state": {
    "enthalpy_bib_reference": "https://webbook.nist.gov : Prosen and Rossini, 1945",
    "enthalpy_ref_state": "1ATM",
    "enthalpy": -290.9e3,
    "entropy_bib_reference": "https://webbook.nist.gov : Stull D.R., 1969",
    "entropy_ref_state": "1ATM",
    "entropy": 622.50
  },
  "standard_formation_energy": {
    "bib_reference": "ISBN: 978-0070116825",
    "enthalpy": -290790.0,
    "gibbs": 49530.0
  },
  "rackett_factor": {
    "bib_reference": "",
    "Zra": 0.24668
  },
  "dipole_moment": {
    "mu": 0.0,
    "bib_reference": ""
  },
  "quadrupole_moment": {
    "Q": 0.0,
    "bib_reference": ""
  },
  "SRK": {
    "TWU-1": {
      "ref": "tcRK",
      "bib_reference": "10.1016/j.fluid.2016.09.003",
      "correlation": [
        0.3887,
        0.8275,
        2.8213
      ]
    },
    "volume_shift": {
      "ref": "tcRK",
      "bib_reference": "10.1016/j.fluid.2016.09.003",
      "ciA": 6.56626e-05,
      "ciB": 0.0,
      "ciC": 0.0,
      "correlation": 1
    }
  },
  "PR": {
    "TWU-1": {
      "ref": "tcPR",
      "bib_reference": "10.1016/j.fluid.2016.09.003",
      "correlation": [
        0.3956,
        0.8112,
        2.3549
      ]
    },
    "volume_shift": {
      "ref": "tcPR",
      "bib_reference": "10.1016/j.fluid.2016.09.003",
      "ciA": 2.20285e-05,
      "ciB": 0.0,
      "ciC": 0.0,
      "correlation": 1
    }
  },
  "PC-SAFT-1": {
    "m": 5.2133,
    "sigma": 3.9115E-10,
    "eps_depth_divk": 248.0042,
    "eps": 0.0,
    "beta": 0.0,
    "assoc_scheme": "None",
    "bib_reference": "Kontogeorgis & Folas (2010). Doi: 10.1002/9780470747537",
    "ref": "Default/Kontogeorgis_Folas2001"
  }
}
