{
  "ident": "NC16",
  "formula": "C16H34",
  "cas_number": "544-76-3",
  "name": "N-HEXADECANE",
  "aliases": [
    "n-Hexadecane",
    "Hexadecane"
  ],
  "mol_weight": 226.446,
  "critical": {
    "ref": "Default",
    "bib_reference": "",
    "temperature": 717.0,
    "pressure": 1418600.0,
    "compressibility": 0.23
  },
  "triple": {
    "ref": "Default",
    "bib_reference": "",
    "temperature": 0.0,
    "pressure": 0.0
  },
  "acentric_factor": {
    "ref": "Default",
    "bib_reference": "",
    "acf": 0.742
  },
  "boiling_temperature": {
    "bib_reference": "",
    "temperature": 560.0
  },
  "saturation": {
    "ref": "Default",
    "bib_reference": "",
    "correlation": 1,
    "ant": [
      16.1841,
      4214.91,
      -118.7
    ],
    "Tmin": 423.0,
    "Tmax": 594.0
  },
  "ideal_heat_capacity-1": {
    "ref": "Default",
    "bib_reference": "",
    "correlation": 2,
    "cp": [
      60.927011,
      -0.095563,
      0.003459313,
      -1.356807e-06,
      2.65935e-10,
      -1.46753e-14,
      3.095128,
      0.0,
      0.0,
      0.0
    ],
    "Tmin": -20.0,
    "Tmax": 1200.0
  },
  "ideal_heat_capacity-2": {
    "ref": "",
    "bib_reference": "",
    "correlation": 8,
    "cp": [
      39.747,
      -0.206152,
      0.00114814,
      -1.55548e-06,
      6.7534e-10,
      0.0,
      0.0,
      0.0,
      0.0,
      0.0
    ],
    "Tmin": -20.0,
    "Tmax": 1200.0
  },
  "reference_state": {
    "bib_reference": "",
    "enthalpy": 0.0,
    "entropy": 0.0
  },
  "standard_formation_energy": {
    "bib_reference": "",
    "enthalpy": 0.0,
    "gibbs": 0.0
  },
  "rackett_factor": {
    "bib_reference": "",
    "Zra": 0.2388
  },
  "dipole_moment": {
    "mu": 0.0,
    "bib_reference": ""
  },
  "quadrupole_moment": {
    "Q": 0.0,
    "bib_reference": ""
  },
  "SRK": {
    "TWU-1": {
      "ref": "tcRK",
      "bib_reference": "10.1016/j.fluid.2016.09.003",
      "correlation": [
        0.5262,
        0.8068,
        2.508
      ]
    },
    "volume_shift": {
      "ref": "tcRK",
      "bib_reference": "10.1016/j.fluid.2016.09.003",
      "ciA": 0.00011330079999999999,
      "ciB": 0.0,
      "ciC": 0.0,
      "correlation": 1
    }
  },
  "PR": {
    "TWU-1": {
      "ref": "tcPR",
      "bib_reference": "10.1016/j.fluid.2016.09.003",
      "correlation": [
        0.5372,
        0.7929,
        2.1458
      ]
    },
    "volume_shift": {
      "ref": "tcPR",
      "bib_reference": "10.1016/j.fluid.2016.09.003",
      "ciA": 5.1903699999999996e-05,
      "ciB": 0.0,
      "ciC": 0.0,
      "correlation": 1
    }
  },
  "PC-SAFT-1": {
    "m": 6.6107,
    "sigma": 3.949E-10,
    "eps_depth_divk": 251.1392,
    "eps": 0.0,
    "beta": 0.0,
    "assoc_scheme": "None",
    "bib_reference": "Kontogeorgis & Folas (2010). Doi: 10.1002/9780470747537",
    "ref": "Default/Kontogeorgis_Folas2001"
  }
}
