{
  "ident": "NC6",
  "formula": "C6H14",
  "cas_number": "110-54-3",
  "InChI": "1S/C6H14/c1-3-5-6-4-2/h3-6H2,1-2H3",
  "structure": "C:6;H:14",
  "name": "N-HEXANE",
  "aliases": [
    "n-Hexane",
    "Hexane"
  ],
  "mol_weight": 86.178,
  "critical": {
    "ref": "Default",
    "bib_reference": "",
    "temperature": 507.4,
    "pressure": 2968800.0,
    "compressibility": 0.26
  },
  "triple": {
    "ref": "Default",
    "bib_reference": "",
    "temperature": 0.0,
    "pressure": 0.0
  },
  "acentric_factor": {
    "ref": "Default",
    "bib_reference": "",
    "acf": 0.296
  },
  "boiling_temperature": {
    "bib_reference": "",
    "temperature": 341.9
  },
  "saturation": {
    "ref": "Default",
    "bib_reference": "",
    "correlation": 1,
    "ant": [
      15.8366,
      2697.55,
      -48.78
    ],
    "Tmin": 245.0,
    "Tmax": 370.0
  },
  "ideal_heat_capacity-1": {
    "ref": "Default",
    "bib_reference": "",
    "correlation": 2,
    "cp": [
      -17.191071,
      0.959226,
      -0.000614725,
      6.142101e-06,
      -6.160952e-09,
      2.086819e-12,
      -0.20704,
      0.0,
      0.0,
      0.0
    ],
    "Tmin": -75.0,
    "Tmax": 700.0
  },
  "reference_state": {
    "enthalpy_bib_reference": "https://webbook.nist.gov : Good and Smith, 1969",
    "enthalpy": -167.1e3,
    "entropy_bib_reference": "https://webbook.nist.gov : Scott D.W., 1974",
    "entropy_ref_state": "1ATM",
    "entropy": 388.82
  },
  "rackett_factor": {
    "bib_reference": "",
    "Zra": 0.2635
  },
  "dipole_moment": {
    "mu": 0.0,
    "bib_reference": ""
  },
  "quadrupole_moment": {
    "Q": 0.0,
    "bib_reference": ""
  },
  "SRK": {
    "MC-1": {
      "ref": "Default",
      "bib_reference": "10.1016/j.fluid.2005.11.010",
      "correlation": [
        1.043,
        -1.1553,
        2.9235
      ]
    },
    "MC-2": {
      "ref": "Chapoy2005",
      "bib_reference": "Thesis by Antonin Chapoy (2005)",
      "correlation": [
        1.005,
        -0.591,
        1.203
      ]
    },
    "TWU-1": {
      "ref": "tcRK",
      "bib_reference": "10.1016/j.fluid.2016.09.003",
      "correlation": [
        0.2773,
        0.8503,
        2.5439
      ]
    },
    "volume_shift": {
      "ref": "tcRK",
      "bib_reference": "10.1016/j.fluid.2016.09.003",
      "ciA": 2.20445e-05,
      "ciB": 0.0,
      "ciC": 0.0,
      "correlation": 1
    },
    "CPA-1": {
      "ref": "Default/Kontogeorgis-Folas2010",
      "bib_reference": "10.1002/9780470747537",
      "a0": 23.681E+5,
      "b": 0.10789,
      "alphaParams": [0.8313,0.0,0.0],
      "alphaCorr": "Classic",
      "eps": 0.0,
      "beta": 0.0,
      "assoc_scheme": "NONE"
    }
  },
  "PR": {
    "MC-1": {
      "ref": "Default",
      "bib_reference": "10.1016/j.fluid.2005.11.010",
      "correlation": [
        1.043,
        -1.1553,
        2.9235
      ]
    },
    "MC-2": {
      "ref": "Chapoy2005",
      "bib_reference": "Thesis by Antonin Chapoy (2005)",
      "correlation": [
        0.87,
        -0.588,
        1.504
      ]
    },
    "TWU-1": {
      "ref": "tcPR",
      "bib_reference": "10.1016/j.fluid.2016.09.003",
      "correlation": [
        0.2557,
        0.8377,
        2.1871
      ]
    },
    "volume_shift": {
      "ref": "tcPR",
      "bib_reference": "10.1016/j.fluid.2016.09.003",
      "ciA": 7.924999999999999e-07,
      "ciB": 0.0,
      "ciC": 0.0,
      "correlation": 1
    }
  },
  "PC-SAFT-1": {
    "m": 3.0576,
    "sigma": 3.7983E-10,
    "eps_depth_divk": 236.770,
    "eps": 0.0,
    "beta": 0.0,
    "assoc_scheme": "None",
    "bib_reference": "Kontogeorgis & Folas (2010). Doi: 10.1002/9780470747537",
    "ref": "Default/Kontogeorgis_Folas2010"
  },
  "SAFTVRMIE-1": {
    "m": 2.1097,
    "sigma": 4.4230E-10,
    "eps_depth_divk": 354.3800,
    "lambda_a": 6.0000,
    "lambda_r": 17.2030,
    "mass": 6.6890E-27,
    "eps": 0.0000,
    "beta": 0.0000,
    "assoc_scheme": "None",
    "fh_order": 0,
    "bib_reference": "Lafitte et al. 2013, doi: 10.1063/1.4819786",
    "ref": "DEFAULT"
  }
}
