{
  "ident": "NC7",
  "formula": "C7H16",
  "cas_number": "142-82-5",
  "InChI": "1S/C7H16/c1-3-5-7-6-4-2/h3-7H2,1-2H3",
  "structure": "C:7;H:16",
  "name": "N-HEPTANE",
  "aliases": [
    "n-Heptane",
    "Heptane"
  ],
  "mol_weight": 100.205,
  "critical": {
    "ref": "Default",
    "bib_reference": "",
    "temperature": 540.2,
    "pressure": 2735800.0,
    "compressibility": 0.263
  },
  "triple": {
    "ref": "Default",
    "bib_reference": "",
    "temperature": 0.0,
    "pressure": 0.0
  },
  "acentric_factor": {
    "ref": "Default",
    "bib_reference": "",
    "acf": 0.351
  },
  "boiling_temperature": {
    "bib_reference": "",
    "temperature": 371.6
  },
  "saturation": {
    "ref": "Default",
    "bib_reference": "",
    "correlation": 1,
    "ant": [
      15.8737,
      2911.32,
      -56.51
    ],
    "Tmin": 270.0,
    "Tmax": 400.0
  },
  "ideal_heat_capacity-1": {
    "ref": "Default",
    "bib_reference": "",
    "correlation": 2,
    "cp": [
      -0.153725,
      0.754499,
      0.000261728,
      4.366358e-06,
      -4.48451e-09,
      1.4842099e-12,
      0.380048,
      0.0,
      0.0,
      0.0
    ],
    "Tmin": -75.0,
    "Tmax": 700.0
  },
  "reference_state": {
    "enthalpy_bib_reference": "https://webbook.nist.gov : Prosen and Rossini, 1945",
    "enthalpy_ref_state": "1ATM",
    "enthalpy": -187.8e3,
    "entropy_bib_reference": "HSC Chemistry 9",
    "entropy_ref_state": "0BAR",
    "entropy": 428.230
  },
  "standard_formation_energy": {
    "bib_reference": "ISBN: 978-0070116825",
    "enthalpy": -187800.0,
    "gibbs": 8200.0
  },
  "rackett_factor": {
    "bib_reference": "",
    "Zra": 0.2604
  },
  "dipole_moment": {
    "mu": 0.0,
    "bib_reference": ""
  },
  "quadrupole_moment": {
    "Q": 0.0,
    "bib_reference": ""
  },
  "SRK": {
    "MC-1": {
      "ref": "Default",
      "bib_reference": "10.1016/j.fluid.2005.11.010",
      "correlation": [
        1.2278,
        -1.5558,
        3.9361
      ]
    },
    "MC-2": {
      "ref": "Chapoy2005",
      "bib_reference": "Thesis by Antonin Chapoy (2005)",
      "correlation": [
        1.036,
        -0.258,
        0.488
      ]
    },
    "TWU-1": {
      "ref": "tcRK",
      "bib_reference": "10.1016/j.fluid.2016.09.003",
      "correlation": [
        0.3269,
        0.8387,
        2.396
      ]
    },
    "volume_shift": {
      "ref": "tcRK",
      "bib_reference": "10.1016/j.fluid.2016.09.003",
      "ciA": 2.7826299999999998e-05,
      "ciB": 0.0,
      "ciC": 0.0,
      "correlation": 1
    },
    "CPA-1": {
      "ref": "Default/Kontogeorgis-Folas2010",
      "bib_reference": "10.1002/9780470747537",
      "a0": 29.178E+5,
      "b": 0.12535,
      "alphaParams": [0.9137,0.0,0.0],
      "alphaCorr": "Classic",
      "eps": 0.0,
      "beta": 0.0,
      "assoc_scheme": "NONE"
    }
  },
  "PR": {
    "MC-1": {
      "ref": "Default",
      "bib_reference": "10.1016/j.fluid.2005.11.010",
      "correlation": [
        1.2278,
        -1.5558,
        3.9361
      ]
    },
    "MC-2": {
      "ref": "Chapoy2005",
      "bib_reference": "Thesis by Antonin Chapoy (2005)",
      "correlation": [
        0.878,
        -0.031,
        0.302
      ]
    },
    "TWU-1": {
      "ref": "tcPR",
      "bib_reference": "10.1016/j.fluid.2016.09.003",
      "correlation": [
        0.3297,
        0.8222,
        1.9615
      ]
    },
    "volume_shift": {
      "ref": "tcPR",
      "bib_reference": "10.1016/j.fluid.2016.09.003",
      "ciA": 3.0908e-06,
      "ciB": 0.0,
      "ciC": 0.0,
      "correlation": 1
    }
  },
  "PC-SAFT-1": {
    "m": 3.4831,
    "sigma": 3.8049E-10,
    "eps_depth_divk": 238.400,
    "eps": 0.0,
    "beta": 0.0,
    "assoc_scheme": "None",
    "bib_reference": "Kontogeorgis & Folas (2010). Doi: 10.1002/9780470747537",
    "ref": "Default/Kontogeorgis_Folas2001"
  },
  "SAFTVRMIE-1": {
    "m": 2.3949,
    "sigma": 4.4282E-10,
    "eps_depth_divk": 358.5100,
    "lambda_a": 6.0000,
    "lambda_r": 17.0920,
    "mass": 6.6890E-27,
    "eps": 0.0000,
    "beta": 0.0000,
    "assoc_scheme": "None",
    "fh_order": 0,
    "bib_reference": "Lafitte et al. 2013, doi: 10.1063/1.4819786",
    "ref": "DEFAULT"
  }
}
