{
  "ident": "NC9",
  "formula": "C9H20",
  "cas_number": "111-84-2",
  "InChI": "1S/C9H20/c1-3-5-7-9-8-6-4-2/h3-9H2,1-2H3",
  "structure": "C:9;H:20",
  "name": "N-NONANE",
  "aliases": [
    "n-Nonane",
    "Nonane"
  ],
  "mol_weight": 128.259,
  "critical": {
    "ref": "Default",
    "bib_reference": "",
    "temperature": 594.6,
    "pressure": 2310200.0,
    "compressibility": 0.26
  },
  "triple": {
    "ref": "Default",
    "bib_reference": "",
    "temperature": 0.0,
    "pressure": 0.0
  },
  "acentric_factor": {
    "ref": "Default",
    "bib_reference": "",
    "acf": 0.444
  },
  "boiling_temperature": {
    "bib_reference": "",
    "temperature": 424.0
  },
  "saturation": {
    "ref": "Default",
    "bib_reference": "",
    "correlation": 1,
    "ant": [
      15.9671,
      3291.45,
      -71.33
    ],
    "Tmin": 312.0,
    "Tmax": 452.0
  },
  "ideal_heat_capacity-1": {
    "ref": "Default",
    "bib_reference": "",
    "correlation": 2,
    "cp": [
      4.000278,
      0.707805,
      0.000438048,
      3.969342e-06,
      -4.043158e-09,
      1.2876028e-12,
      0.257265,
      0.0,
      0.0,
      0.0
    ],
    "Tmin": -75.0,
    "Tmax": 700.0
  },
  "reference_state": {
    "enthalpy_bib_reference": "https://webbook.nist.gov : Good, 1969",
    "enthalpy": -228.3e3,
    "entropy_bib_reference": "https://webbook.nist.gov : Scott D.W., 1974",
    "entropy_ref_state": "1ATM",
    "entropy": 506.5
  },
  "rackett_factor": {
    "bib_reference": "",
    "Zra": 0.2543
  },
  "dipole_moment": {
    "mu": 0.0,
    "bib_reference": ""
  },
  "quadrupole_moment": {
    "Q": 0.0,
    "bib_reference": ""
  },
  "SRK": {
    "TWU-1": {
      "ref": "tcRK",
      "bib_reference": "10.1016/j.fluid.2016.09.003",
      "correlation": [
        0.3858,
        0.8294,
        2.4041
      ]
    },
    "volume_shift": {
      "ref": "tcRK",
      "bib_reference": "10.1016/j.fluid.2016.09.003",
      "ciA": 4.13357e-05,
      "ciB": 0.0,
      "ciC": 0.0,
      "correlation": 1
    },
    "CPA-1": {
      "ref": "Default/Kontogeorgis-Folas2010",
      "bib_reference": "10.1002/9780470747537",
      "a0": 41.25061E+5,
      "b": 0.16035,
      "alphaParams": [1.04628,0.0,0.0],
      "alphaCorr": "Classic",
      "eps": 0.0,
      "beta": 0.0,
      "assoc_scheme": "NONE"
    }
  },
  "PR": {
    "TWU-1": {
      "ref": "tcPR",
      "bib_reference": "10.1016/j.fluid.2016.09.003",
      "correlation": [
        0.4054,
        0.8097,
        1.9343
      ]
    },
    "volume_shift": {
      "ref": "tcPR",
      "bib_reference": "10.1016/j.fluid.2016.09.003",
      "ciA": 9.318899999999998e-06,
      "ciB": 0.0,
      "ciC": 0.0,
      "correlation": 1
    }
  },
  "PC-SAFT-1": {
    "m": 4.2079,
    "sigma": 3.8448E-10,
    "eps_depth_divk": 244.510,
    "eps": 0.0,
    "beta": 0.0,
    "assoc_scheme": "None",
    "bib_reference": "Kontogeorgis & Folas (2010). Doi: 10.1002/9780470747537",
    "ref": "Default/Kontogeorgis_Folas2001"
  },
  "SAFTVRMIE-1": {
    "m": 2.8099,
    "sigma": 4.5334E-10,
    "eps_depth_divk": 387.5500,
    "lambda_a": 6.0000,
    "lambda_r": 18.3240,
    "mass": 6.6890E-27,
    "eps": 0.0000,
    "beta": 0.0000,
    "assoc_scheme": "None",
    "fh_order": 0,
    "bib_reference": "Lafitte et al. 2013, doi: 10.1063/1.4819786",
    "ref": "DEFAULT"
  }
}
