{
  "ident": "NC8",
  "formula": "C8H18",
  "cas_number": "111-65-9",
  "InChI": "1S/C8H18/c1-3-5-7-8-6-4-2/h3-8H2,1-2H3",
  "structure": "C:8;H:18",
  "name": "N-OCTANE",
  "aliases": [
    "n-Octane",
    "Octane"
  ],
  "mol_weight": 114.232,
  "critical": {
    "ref": "Default",
    "bib_reference": "",
    "temperature": 568.8,
    "pressure": 2482500.0,
    "compressibility": 0.259
  },
  "triple": {
    "ref": "Default",
    "bib_reference": "",
    "temperature": 0.0,
    "pressure": 0.0
  },
  "acentric_factor": {
    "ref": "Default",
    "bib_reference": "",
    "acf": 0.394
  },
  "boiling_temperature": {
    "bib_reference": "",
    "temperature": 398.8
  },
  "saturation": {
    "ref": "Default",
    "bib_reference": "",
    "correlation": 1,
    "ant": [
      15.9426,
      3120.29,
      -63.63
    ],
    "Tmin": 292.0,
    "Tmax": 425.0
  },
  "ideal_heat_capacity-1": {
    "ref": "Default",
    "bib_reference": "",
    "correlation": 2,
    "cp": [
      2.604725,
      0.72467,
      0.000367845,
      4.142833e-06,
      -4.240199e-09,
      1.3734055e-12,
      0.327588,
      0.0,
      0.0,
      0.0
    ],
    "Tmin": -75.0,
    "Tmax": 700.0
  },
  "reference_state": {
    "enthalpy_bib_reference": "https://webbook.nist.gov : Good, 1972",
    "enthalpy": -208.7e3,
    "entropy_bib_reference": "https://webbook.nist.gov : Scott D.W., 1974",
    "entropy_ref_state": "1ATM",
    "entropy": 467.06
  },
  "rackett_factor": {
    "bib_reference": "",
    "Zra": 0.2571
  },
  "dipole_moment": {
    "mu": 0.0,
    "bib_reference": ""
  },
  "quadrupole_moment": {
    "Q": 0.0,
    "bib_reference": ""
  },
  "SRK": {
    "MC-1": {
      "ref": "Default",
      "bib_reference": "10.1016/j.fluid.2005.11.010",
      "correlation": [
        1.2798,
        -1.3822,
        3.3933
      ]
    },
    "MC-2": {
      "ref": "Chapoy2005",
      "bib_reference": "Thesis by Antonin Chapoy (2005)",
      "correlation": [
        1.15,
        -0.587,
        1.096
      ]
    },
    "TWU-1": {
      "ref": "tcRK",
      "bib_reference": "10.1016/j.fluid.2016.09.003",
      "correlation": [
        0.3449,
        0.8341,
        2.466
      ]
    },
    "volume_shift": {
      "ref": "tcRK",
      "bib_reference": "10.1016/j.fluid.2016.09.003",
      "ciA": 3.48304e-05,
      "ciB": 0.0,
      "ciC": 0.0,
      "correlation": 1
    },
    "CPA-1": {
      "ref": "Default/Kontogeorgis-Folas2010",
      "bib_reference": "10.1002/9780470747537",
      "a0": 34.875E+5,
      "b": 0.14244,
      "alphaParams": [0.99415,0.0,0.0],
      "alphaCorr": "Classic",
      "eps": 0.0,
      "beta": 0.0,
      "assoc_scheme": "NONE"
    }
  },
  "PR": {
    "MC-1": {
      "ref": "Default",
      "bib_reference": "10.1016/j.fluid.2005.11.010",
      "correlation": [
        1.2798,
        -1.3822,
        3.3933
      ]
    },
    "MC-2": {
      "ref": "Chapoy2005",
      "bib_reference": "Thesis by Antonin Chapoy (2005)",
      "correlation": [
        0.958,
        -0.134,
        0.487
      ]
    },
    "TWU-1": {
      "ref": "tcPR",
      "bib_reference": "10.1016/j.fluid.2016.09.003",
      "correlation": [
        0.3385,
        0.8185,
        2.0747
      ]
    },
    "volume_shift": {
      "ref": "tcPR",
      "bib_reference": "10.1016/j.fluid.2016.09.003",
      "ciA": 6.4134e-06,
      "ciB": 0.0,
      "ciC": 0.0,
      "correlation": 1
    }
  },
  "PC-SAFT-1": {
    "m": 3.8176,
    "sigma": 3.8373E-10,
    "eps_depth_divk": 242.780,
    "eps": 0.0,
    "beta": 0.0,
    "assoc_scheme": "None",
    "bib_reference": "Kontogeorgis & Folas (2010). Doi: 10.1002/9780470747537",
    "ref": "Default/Kontogeorgis_Folas2010"
  },
  "SAFTVRMIE-1": {
    "m": 2.6253,
    "sigma": 4.4696E-10,
    "eps_depth_divk": 369.1800,
    "lambda_a": 6.0000,
    "lambda_r": 17.3780,
    "mass": 6.6890E-27,
    "eps": 0.0000,
    "beta": 0.0000,
    "assoc_scheme": "None",
    "fh_order": 0,
    "bib_reference": "Lafitte et al. 2013, doi: 10.1063/1.4819786",
    "ref": "DEFAULT"
  }
}
