{
  "ident": "NC14",
  "formula": "C14H30",
  "cas_number": "629-59-4",
  "InChI": "1S/C14H30/c1-3-5-7-9-11-13-14-12-10-8-6-4-2/h3-14H2,1-2H3",
  "structure": "C:14;H:30",
  "name": "N-TETRADECANE",
  "aliases": [
    "n-TetraDecane",
    "TetraDecane"
  ],
  "mol_weight": 198.39,
  "critical": {
    "ref": "Default",
    "bib_reference": "",
    "temperature": 693.0,
    "pressure": 1570000.0,
    "compressibility": 0.244
  },
  "triple": {
    "ref": "Default",
    "bib_reference": "",
    "temperature": 0.0,
    "pressure": 0.0
  },
  "acentric_factor": {
    "ref": "Default",
    "bib_reference": "",
    "acf": 0.644
  },
  "boiling_temperature": {
    "bib_reference": "",
    "temperature": 526.76
  },
  "saturation": {
    "ref": "Default",
    "bib_reference": "",
    "correlation": 1,
    "ant": [
      0.0,
      0.0,
      0.0
    ],
    "Tmin": 0.0,
    "Tmax": 0.0
  },
  "ideal_heat_capacity-1": {
    "ref": "Default",
    "bib_reference": "",
    "correlation": 8,
    "cp": [
      18.375,
      0.006585,
      0.00032307,
      -4.2663e-07,
      1.659e-10,
      0.0,
      0.0,
      0.0,
      0.0,
      0.0
    ],
    "Tmin": -20.0,
    "Tmax": 1200.0
  },
  "reference_state": {
    "enthalpy_bib_reference": "https://webbook.nist.gov : Prosen and Rossini, 1945",
    "enthalpy": -332.1e3,
    "entropy_bib_reference": "https://webbook.nist.gov : Stull D.R., 1969",
    "entropy_ref_state": "1ATM",
    "entropy": 700.40
  },
  "rackett_factor": {
    "bib_reference": "",
    "Zra": 0.24006
  },
  "dipole_moment": {
    "mu": 0.0,
    "bib_reference": ""
  },
  "quadrupole_moment": {
    "Q": 0.0,
    "bib_reference": ""
  },
  "SRK": {
    "TWU-1": {
      "ref": "tcRK",
      "bib_reference": "10.1016/j.fluid.2016.09.003",
      "correlation": [
        0.4841,
        0.8118,
        2.4995
      ]
    },
    "volume_shift": {
      "ref": "tcRK",
      "bib_reference": "10.1016/j.fluid.2016.09.003",
      "ciA": 9.26542e-05,
      "ciB": 0.0,
      "ciC": 0.0,
      "correlation": 1
    }
  },
  "PR": {
    "TWU-1": {
      "ref": "tcPR",
      "bib_reference": "10.1016/j.fluid.2016.09.003",
      "correlation": [
        0.4902,
        0.7974,
        2.1353
      ]
    },
    "volume_shift": {
      "ref": "tcPR",
      "bib_reference": "10.1016/j.fluid.2016.09.003",
      "ciA": 3.96525e-05,
      "ciB": 0.0,
      "ciC": 0.0,
      "correlation": 1
    }
  },
  "PC-SAFT-1": {
    "m": 5.912,
    "sigma": 3.9326E-10,
    "eps_depth_divk": 249.757,
    "eps": 0.0,
    "beta": 0.0,
    "assoc_scheme": "None",
    "bib_reference": "Kontogeorgis & Folas (2010). Doi: 10.1002/9780470747537",
    "ref": "Default/Kontogeorgis_Folas2001"
  }
}
