{
  "ident": "NC23",
  "formula": "C23H48",
  "cas_number": "638-67-5",
  "InChI": "1S/C23H48/c1-3-5-7-9-11-13-15-17-19-21-23-22-20-18-16-14-12-10-8-6-4-2/h3-23H2,1-2H3",
  "structure": "C:23;H:48",
  "name": "N-TRICOSANE",
  "aliases": [
    "n-Tricosane",
    "Tricosane"
  ],
  "mol_weight": 324.63,
  "critical": {
    "ref": "Default",
    "bib_reference": "",
    "temperature": 796.0,
    "pressure": 1020000.0,
    "compressibility": 0.24
  },
  "triple": {
    "ref": "Default",
    "bib_reference": "",
    "temperature": 0.0,
    "pressure": 0.0
  },
  "acentric_factor": {
    "ref": "Default",
    "bib_reference": "",
    "acf": 1.0262
  },
  "boiling_temperature": {
    "bib_reference": "",
    "temperature": 653.35
  },
  "saturation": {
    "ref": "Default",
    "bib_reference": "",
    "correlation": 1,
    "ant": [
      0.0,
      0.0,
      0.0
    ],
    "Tmin": 0.0,
    "Tmax": 0.0
  },
  "ideal_heat_capacity-1": {
    "ref": "Default",
    "bib_reference": "",
    "correlation": 7,
    "cp": [
      410150.0,
      1234200.0,
      1723.1,
      852280.0,
      784.97,
      0.0,
      0.0,
      0.0,
      0.0,
      0.0
    ],
    "Tmin": 300.0,
    "Tmax": 1500.0
  },
  "reference_state": {
    "enthalpy_bib_reference": "HSC Chemistry 9",
    "enthalpy": -518050.0,
    "entropy_bib_reference": "HSC Chemistry 9",
    "entropy_ref_state": "1BAR",
    "entropy": 1051.910
  },
  "rackett_factor": {
    "bib_reference": "",
    "Zra": 0.22928
  },
  "dipole_moment": {
    "mu": 0.0,
    "bib_reference": ""
  },
  "quadrupole_moment": {
    "Q": 0.0,
    "bib_reference": ""
  },
  "SRK": {
    "TWU-1": {
      "ref": "tcRK",
      "bib_reference": "10.1016/j.fluid.2016.09.003",
      "correlation": [
        0.544,
        0.8143,
        3.24
      ]
    },
    "volume_shift": {
      "ref": "tcRK",
      "bib_reference": "10.1016/j.fluid.2016.09.003",
      "ciA": 0.00017391589999999997,
      "ciB": 0.0,
      "ciC": 0.0,
      "correlation": 1
    }
  },
  "PR": {
    "TWU-1": {
      "ref": "tcPR",
      "bib_reference": "10.1016/j.fluid.2016.09.003",
      "correlation": [
        0.4697,
        0.8142,
        3.2426
      ]
    },
    "volume_shift": {
      "ref": "tcPR",
      "bib_reference": "10.1016/j.fluid.2016.09.003",
      "ciA": 8.45878e-05,
      "ciB": 0.0,
      "ciC": 0.0,
      "correlation": 1
    }
  },
  "PC-SAFT-1": {
    "m": 9.0561,
    "sigma": 3.986E-10,
    "eps_depth_divk": 254.2975,
    "eps": 0.0,
    "beta": 0.0,
    "assoc_scheme": "None",
    "bib_reference": "Kontogeorgis & Folas (2010). Doi: 10.1002/9780470747537",
    "ref": "Default/Kontogeorgis_Folas2010"
  }
}
