{
  "ident": "NC11",
  "formula": "C11H24",
  "cas_number": "1120-21-4",
  "InChI": "1S/C11H24/c1-3-5-7-9-11-10-8-6-4-2/h3-11H2,1-2H3",
  "structure": "C:11;H:24",
  "name": "N-UNDECANE",
  "aliases": [
    "n-Undecane",
    "Undecane"
  ],
  "mol_weight": 156.312,
  "critical": {
    "ref": "Default",
    "bib_reference": "",
    "temperature": 639.0,
    "pressure": 1980000.0,
    "compressibility": 0.257
  },
  "triple": {
    "ref": "Default",
    "bib_reference": "",
    "temperature": 0.0,
    "pressure": 0.0
  },
  "acentric_factor": {
    "ref": "Default",
    "bib_reference": "",
    "acf": 0.537
  },
  "boiling_temperature": {
    "bib_reference": "",
    "temperature": 469.1
  },
  "saturation": {
    "ref": "Default",
    "bib_reference": "",
    "correlation": 1,
    "ant": [
      16.0541,
      3614.07,
      -85.45
    ],
    "Tmin": 348.0,
    "Tmax": 498.0
  },
  "ideal_heat_capacity-1": {
    "ref": "Default",
    "bib_reference": "",
    "correlation": 2,
    "cp": [
      65.290564,
      -0.099827,
      0.003472495,
      -1.354336e-06,
      2.64721e-10,
      -1.45574e-14,
      3.407959,
      0.0,
      0.0,
      0.0
    ],
    "Tmin": -20.0,
    "Tmax": 1200.0
  },
  "reference_state": {
    "enthalpy_bib_reference": "https://webbook.nist.gov : Prosen and Rossini, 1945",
    "enthalpy": -270.3e3,
    "entropy_bib_reference": "https://webbook.nist.gov : Stull D.R., 1969",
    "entropy_ref_state": "1ATM",
    "entropy": 583.58
  },
  "rackett_factor": {
    "bib_reference": "",
    "Zra": 0.2499
  },
  "dipole_moment": {
    "mu": 0.0,
    "bib_reference": ""
  },
  "quadrupole_moment": {
    "Q": 0.0,
    "bib_reference": ""
  },
  "SRK": {
    "TWU-1": {
      "ref": "tcRK",
      "bib_reference": "10.1016/j.fluid.2016.09.003",
      "correlation": [
        0.4018,
        0.8245,
        2.588
      ]
    },
    "volume_shift": {
      "ref": "tcRK",
      "bib_reference": "10.1016/j.fluid.2016.09.003",
      "ciA": 5.804919999999999e-05,
      "ciB": 0.0,
      "ciC": 0.0,
      "correlation": 1
    }
  },
  "PR": {
    "TWU-1": {
      "ref": "tcPR",
      "bib_reference": "10.1016/j.fluid.2016.09.003",
      "correlation": [
        0.4185,
        0.8071,
        2.1224
      ]
    },
    "volume_shift": {
      "ref": "tcPR",
      "bib_reference": "10.1016/j.fluid.2016.09.003",
      "ciA": 1.81817e-05,
      "ciB": 0.0,
      "ciC": 0.0,
      "correlation": 1
    }
  },
  "PC-SAFT-1": {
    "m": 4.864,
    "sigma": 3.8986E-10,
    "eps_depth_divk": 246.939,
    "eps": 0.0,
    "beta": 0.0,
    "assoc_scheme": "None",
    "bib_reference": "Kontogeorgis & Folas (2010). Doi: 10.1002/9780470747537",
    "ref": "Default/Kontogeorgis_Folas2001"
  }
}
