{
  "ident": "NE",
  "formula": "NE",
  "cas_number": "7440-01-9",
  "name": "NEON",
  "aliases": [
    "Neon"
  ],
  "mol_weight": 20.183,
  "critical": {
    "ref": "Default",
    "bib_reference": "",
    "temperature": 44.4,
    "pressure": 2661630.0,
    "compressibility": 0.311
  },
  "triple": {
    "ref": "Default",
    "bib_reference": "",
    "temperature": 0.0,
    "pressure": 0.0
  },
  "acentric_factor": {
    "ref": "Default",
    "bib_reference": "",
    "acf": -0.03845
  },
  "boiling_temperature": {
    "bib_reference": "",
    "temperature": 27.1
  },
  "saturation": {
    "ref": "Default",
    "bib_reference": "",
    "correlation": 1,
    "ant": [
      25.6553,
      -295.285,
      4.97548
    ],
    "Tmin": 30.0,
    "Tmax": 40.0
  },
  "ideal_heat_capacity-1": {
    "ref": "Default",
    "bib_reference": "",
    "correlation": 4,
    "cp": [
      20.786,
      0.0,
      0.0,
      0.0,
      0.0,
      0.0,
      0.0,
      0.0,
      0.0,
      0.0
    ],
    "Tmin": 0.0,
    "Tmax": 0.0
  },
  "reference_state": {
    "bib_reference": "",
    "enthalpy": 0.0,
    "entropy": 0.0
  },
  "standard_formation_energy": {
    "bib_reference": "",
    "enthalpy": 0.0,
    "gibbs": 0.0
  },
  "rackett_factor": {
    "bib_reference": "",
    "Zra": 0.3085
  },
  "dipole_moment": {
    "mu": 0.0,
    "bib_reference": ""
  },
  "quadrupole_moment": {
    "Q": 0.0,
    "bib_reference": ""
  },
  "SRK": {
    "TWU-1": {
      "ref": "tcRK",
      "bib_reference": "10.1016/j.fluid.2016.09.003",
      "correlation": [
        0.3275,
        0.9699,
        1.2893
      ]
    },
    "volume_shift": {
      "ref": "tcRK",
      "bib_reference": "10.1016/j.fluid.2016.09.003",
      "ciA": -7.12e-08,
      "ciB": 0.0,
      "ciC": 0.0,
      "correlation": 1
    }
  },
  "PR": {
    "TWU-1": {
      "ref": "tcPR",
      "bib_reference": "10.1016/j.fluid.2016.09.003",
      "correlation": [
        0.1887,
        0.947,
        1.4698
      ]
    },
    "TWU-2": {
      "ref": "QuantumCubic",
      "bib_reference": "10.1016/j.fluid.2020.112790",
      "correlation": [
        0.40453,
        0.95861,
        0.8396
      ]
    },
    "volume_shift-1": {
      "ref": "tcPR",
      "bib_reference": "10.1016/j.fluid.2016.09.003",
      "ciA": -2.3573e-06,
      "ciB": 0.0,
      "ciC": 0.0,
      "correlation": 1
    },
    "volume_shift-2": {
      "ref": "QuantumCubic",
      "bib_reference": "10.1016/j.fluid.2020.112790",
      "ciA": -2.4665e-06,
      "ciB": 0.0,
      "ciC": 0.0,
      "correlation": 1
    }
  },
  "SAFTVRMIE-1": {
    "m": 1.000,
    "sigma": 2.8019E-10,
    "eps_depth_divk": 29.8750,
    "lambda_a": 6.0000,
    "lambda_r": 9.6977,
    "mass": 3.3509177E-26,
    "eps": 0.0000,
    "beta": 0.0000,
    "assoc_scheme": "None",
    "fh_order": 0,
    "bib_reference": "Aasen 2019, doi: 10.1063/1.5111364",
    "ref": "DEFAULT/AASEN2019-FH0"
  },
  "SAFTVRMIE-2": {
    "m": 1.000,
    "sigma": 2.7778E-10,
    "eps_depth_divk": 37.5010,
    "lambda_a": 6.0000,
    "lambda_r": 13.0000,
    "mass": 3.3509177E-26,
    "eps": 0.0000,
    "beta": 0.0000,
    "assoc_scheme": "None",
    "fh_order": 1,
    "bib_reference": "Aasen 2019, doi: 10.1063/1.5111364",
    "ref": "AASEN2019-FH1"
  },
  "SAFTVRMIE-3": {
    "m": 1.000,
    "sigma": 2.7760E-10,
    "eps_depth_divk": 37.7160,
    "lambda_a": 6.0000,
    "lambda_r": 13.0000,
    "mass": 3.3509177E-26,
    "eps": 0.0000,
    "beta": 0.0000,
    "assoc_scheme": "None",
    "fh_order": 2,
    "bib_reference": "Aasen 2019, doi: 10.1063/1.5111364",
    "ref": "AASEN2019-FH2"
  },
  "SAFTVRMIE-4": {
    "m": 1.000,
    "sigma": 2.8066E-10,
    "eps_depth_divk": 33.9770,
    "lambda_a": 6.0000,
    "lambda_r": 12.0000,
    "mass": 3.3509177E-26,
    "eps": 0.0000,
    "beta": 0.0000,
    "assoc_scheme": "None",
    "fh_order": 0,
    "bib_reference": "Aasen 2019, doi: 10.1063/1.5111364",
    "ref": "AASEN2019-FH0-LJ"
  },
  "SAFTVRMIE-5": {
    "m": 1.000,
    "sigma": 2.7760E-10,
    "eps_depth_divk": 35.8510,
    "lambda_a": 6.0000,
    "lambda_r": 12.0000,
    "mass": 3.3509177E-26,
    "eps": 0.0000,
    "beta": 0.0000,
    "assoc_scheme": "None",
    "fh_order": 1,
    "bib_reference": "Aasen 2019, doi: 10.1063/1.5111364",
    "ref": "AASEN2019-FH1-LJ"
  },
  "SAFTVRMIE-6": {
    "m": 1.000,
    "sigma": 2.7745E-10,
    "eps_depth_divk": 36.0240,
    "lambda_a": 6.0000,
    "lambda_r": 12.0000,
    "mass": 3.3509177E-26,
    "eps": 0.0000,
    "beta": 0.0000,
    "assoc_scheme": "None",
    "fh_order": 2,
    "bib_reference": "Aasen 2019, doi: 10.1063/1.5111364",
    "ref": "AASEN2019-FH2-LJ"
  },
  "SAFTVRMIE-7": {
    "m": 1.000,
    "sigma": 2.8000E-10,
    "eps_depth_divk": 31.2970,
    "lambda_a": 6.0000,
    "lambda_r": 10.3960,
    "mass": 3.3509177E-26,
    "eps": 0.0000,
    "beta": 0.0000,
    "assoc_scheme": "None",
    "fh_order": 0,
    "bib_reference": "HYVA parameters with non-integer repulsive exponent",
    "ref": "HYVA-FH0"
  },
  "SAFTVRMIE-8": {
    "m": 1.000,
    "sigma": 2.7765E-10,
    "eps_depth_divk": 36.6480,
    "lambda_a": 6.0000,
    "lambda_r": 12.4510,
    "mass": 3.3509177E-26,
    "eps": 0.0000,
    "beta": 0.0000,
    "assoc_scheme": "None",
    "fh_order": 1,
    "bib_reference": "HYVA parameters with non-integer repulsive exponent",
    "ref": "HYVA-FH1"
  },
  "SAFTVRMIE-9": {
    "m": 1.000,
    "sigma": 2.7765E-10,
    "eps_depth_divk": 38.0390,
    "lambda_a": 6.0000,
    "lambda_r": 13.1870,
    "mass": 3.3509177E-26,
    "eps": 0.0000,
    "beta": 0.0000,
    "assoc_scheme": "None",
    "fh_order": 2,
    "bib_reference": "HYVA parameters with non-integer repulsive exponent",
    "ref": "HYVA-FH2"
  }
}
