{
  "ident": "N2O",
  "formula": "N2O",
  "cas_number": "10024-97-2",
  "name": "NITROUS OXIDE",
  "aliases": [
    "NitrousOxide",
    "R744A"
  ],
  "mol_weight": 44.013,
  "critical": {
    "ref": "Default",
    "bib_reference": "",
    "temperature": 309.6,
    "pressure": 7240000.0,
    "compressibility": 0.274
  },
  "triple": {
    "ref": "Default",
    "bib_reference": "",
    "temperature": 0.0,
    "pressure": 0.0
  },
  "acentric_factor": {
    "ref": "Default",
    "bib_reference": "",
    "acf": 0.165
  },
  "boiling_temperature": {
    "bib_reference": "",
    "temperature": 184.7
  },
  "saturation": {
    "ref": "Default",
    "bib_reference": "",
    "correlation": 2,
    "ant": [
      0.0,
      0.0,
      0.0
    ],
    "Tmin": 0.0,
    "Tmax": 0.0
  },
  "ideal_heat_capacity-1": {
    "ref": "Default",
    "bib_reference": "",
    "correlation": 4,
    "cp": [
      21.62,
      0.07281,
      -5.778e-05,
      1.83e-08,
      0.0,
      0.0,
      0.0,
      0.0,
      0.0,
      0.0
    ],
    "Tmin": 0.0,
    "Tmax": 0.0
  },
  "reference_state": {
    "bib_reference": "",
    "enthalpy": 0.0,
    "entropy": 0.0
  },
  "standard_formation_energy": {
    "bib_reference": "",
    "enthalpy": 0.0,
    "gibbs": 0.0
  },
  "rackett_factor": {
    "bib_reference": "",
    "Zra": 0.2758
  },
  "dipole_moment": {
    "mu": 0.0,
    "bib_reference": ""
  },
  "quadrupole_moment": {
    "Q": 0.0,
    "bib_reference": ""
  },
  "sublimation_curve": {
    "bib_reference": "Bell, I.H. (2018)",
    "ref": "DEFAULT",
    "correlation": "SL-2",
    "triple_temperature": 182.33,
    "minimum_temperature": 0.0,
    "reducing_pressure": 1.000000E+06,
    "reducing_temperature": 1.0,
    "n_coeff": 4,
    "n_coeff_1": 4,
    "n_coeff_2": 0,
    "n_coeff_3": 0,
    "coeff": [
      1.37978754e1,
      -3.18120979e3,
      6.34515147e4,
      -4.18996537e6,
      0.0,
      0.0
    ],
    "exponents": [
      0.0,
      -1.0,
      -2.0,
      -3.0,
      0.0,
      0.0
    ]
  },
  "SRK": {
    "TWU-1": {
      "ref": "tcRK",
      "bib_reference": "10.1016/j.fluid.2016.09.003",
      "correlation": [
        0.3085,
        0.8134,
        1.5675
      ]
    },
    "volume_shift": {
      "ref": "tcRK",
      "bib_reference": "10.1016/j.fluid.2016.09.003",
      "ciA": 4.3974e-06,
      "ciB": 0.0,
      "ciC": 0.0,
      "correlation": 1
    }
  },
  "PR": {
    "TWU-1": {
      "ref": "tcPR",
      "bib_reference": "10.1016/j.fluid.2016.09.003",
      "correlation": [
        0.6248,
        0.7933,
        0.7976
      ]
    },
    "volume_shift": {
      "ref": "tcPR",
      "bib_reference": "10.1016/j.fluid.2016.09.003",
      "ciA": -1.2372e-06,
      "ciB": 0.0,
      "ciC": 0.0,
      "correlation": 1
    }
  }
}
