{
  "ident": "N2",
  "formula": "N2",
  "cas_number": "7727-37-9",
  "InChI": "1S/N2/c1-2",
  "structure": "N:2",
  "name": "NITROGEN",
  "aliases": [
    "Nitrogen",
    "R728"
  ],
  "mol_weight": 28.013,
  "critical": {
    "ref": "Default",
    "bib_reference": "",
    "temperature": 126.161,
    "pressure": 3394400.0,
    "compressibility": 0.29
  },
  "triple": {
    "ref": "Default",
    "bib_reference": "",
    "temperature": 0.0,
    "pressure": 0.0
  },
  "acentric_factor": {
    "ref": "Default",
    "bib_reference": "",
    "acf": 0.04
  },
  "boiling_temperature": {
    "bib_reference": "",
    "temperature": 77.4
  },
  "saturation": {
    "ref": "Default",
    "bib_reference": "",
    "correlation": 1,
    "ant": [
      14.9542,
      588.72,
      -6.6
    ],
    "Tmin": 54.0,
    "Tmax": 90.0
  },
  "ideal_heat_capacity-1": {
    "ref": "Default",
    "bib_reference": "",
    "correlation": 2,
    "cp": [
      -2.172507,
      1.06849,
      -0.000134096,
      2.15569e-07,
      -7.8632e-11,
      6.985e-15,
      1.805409,
      0.0,
      0.0,
      0.0
    ],
    "Tmin": -175.0,
    "Tmax": 1200.0
  },
  "reference_state": {
    "enthalpy_bib_reference": "https://webbook.nist.gov",
    "enthalpy": 0.0,
    "entropy_bib_reference": "https://webbook.nist.gov : Cox, Wagman, et al., 1984",
    "entropy_ref_state": "1BAR",
    "entropy": 191.609
  },
  "rackett_factor": {
    "bib_reference": "",
    "Zra": 0.29
  },
  "dipole_moment": {
    "mu": 0.0,
    "bib_reference": ""
  },
  "quadrupole_moment": {
    "Q": 1.43,
    "bib_reference": "Gross 2005, doi: 10.1002/aic.10502"
  },
  "melting_curve": {
    "bib_reference": "DOI: 10.1063/1.1349047",
    "ref": "DEFAULT",
    "correlation": "ML-1",
    "triple_temperature": 63.151,
    "maximum_temperature": 2000.0,
    "reducing_pressure": 1.251980E+04,
    "reducing_temperature": 63.151,
    "n_coeff": 2,
    "n_coeff_1": 1,
    "n_coeff_2": 0,
    "n_coeff_3": 0,
    "coeff": [
      1.0,
      12798.61,
      0.0,
      0.0,
      0.0,
      0.0
    ],
    "exponents": [
      0.0,
      1.78963,
      0.0,
      0.0,
      0.0,
      0.0
    ]
  },
  "sublimation_curve": {
    "bib_reference": "Lemmon, E.W. (1999)",
    "ref": "DEFAULT",
    "correlation": "SL-3",
    "triple_temperature": 63.151,
    "minimum_temperature": 0.0,
    "reducing_pressure": 1.252300E+04,
    "reducing_temperature": 63.151,
    "n_coeff": 1,
    "n_coeff_1": 0,
    "n_coeff_2": 1,
    "n_coeff_3": 0,
    "coeff": [
      -13.088692,
      0.0,
      0.0,
      0.0,
      0.0,
      0.0
    ],
    "exponents": [
      1.0,
      0.0,
      0.0,
      0.0,
      0.0,
      0.0
    ]
  },
  "SRK": {
    "TWU-1": {
      "ref": "tcRK",
      "bib_reference": "10.1016/j.fluid.2016.09.003",
      "correlation": [
        0.1902,
        0.89,
        2.0106
      ]
    },
    "MC-1": {
      "ref": "Default",
      "bib_reference": "10.1016/j.fluid.2005.11.010",
      "correlation": [
        0.5867,
        -0.4459,
        0.8926
      ]
    },
    "MC-2": {
      "ref": "Chapoy2005",
      "bib_reference": "Thesis by Antonin Chapoy (2005)",
      "correlation": [
        0.584,
        -0.396,
        0.736
      ]
    },
    "volume_shift": {
      "ref": "tcRK",
      "bib_reference": "10.1016/j.fluid.2016.09.003",
      "ciA": 1.347e-06,
      "ciB": 0.0,
      "ciC": 0.0,
      "correlation": 1
    }
  },
  "PR": {
    "TWU-1": {
      "ref": "tcPR",
      "bib_reference": "10.1016/j.fluid.2016.09.003",
      "correlation": [
        0.124,
        0.8897,
        2.0138
      ]
    },
    "MC-1": {
      "ref": "Default",
      "bib_reference": "10.1016/j.fluid.2005.11.010",
      "correlation": [
        0.404606,
        0.391057,
        -0.963495
      ]
    },
    "MC-2": {
      "ref": "Chapoy2005",
      "bib_reference": "Thesis by Antonin Chapoy (2005)",
      "correlation": [
        0.448,
        -0.157,
        0.469
      ]
    },
    "volume_shift": {
      "ref": "tcPR",
      "bib_reference": "10.1016/j.fluid.2016.09.003",
      "ciA": -3.6421999999999996e-06,
      "ciB": 0.0,
      "ciC": 0.0,
      "correlation": 1
    }
  },
  "PC-SAFT-1": {
    "m": 1.2053,
    "sigma": 3.313E-10,
    "eps_depth_divk": 90.960,
    "eps": 0.0,
    "beta": 0.0,
    "assoc_scheme": "None",
    "bib_reference": "Kontogeorgis & Folas (2010). Doi: 10.1002/9780470747537",
    "ref": "Default/Kontogeorgis_Folas2010"
  },
  "PC-SAFT-2": {
    "m": 1.1504,
    "sigma": 3.3848E-10,
    "eps_depth_divk": 91.40,
    "eps": 0.0,
    "beta": 0.0,
    "assoc_scheme": "None",
    "bib_reference": "Gross 2005, doi: 10.1002/aic.10502",
    "ref": "Gross2005"
  },
  "PC-SAFT-3": {
    "m": 1.1879,
    "sigma": 3.3353E-10,
    "eps_depth_divk": 90.99,
    "eps": 0.0,
    "beta": 0.0,
    "assoc_scheme": "None",
    "Q": 1.1151,
    "bib_reference": "Gross 2005, doi: 10.1002/aic.10502",
    "ref": "Gross2005ADJQ"
  },
  "SAFTVRMIE-1": {
    "m": 1.000,
    "sigma": 3.6560E-10,
    "eps_depth_divk": 98.9400,
    "lambda_a": 6.0000,
    "lambda_r": 12.2600,
    "mass": 4.65173451e-26,
    "eps": 0.0000,
    "beta": 0.0000,
    "assoc_scheme": "None",
    "fh_order": 0,
    "bib_reference": "Ronald A. Aziz, J. Chem. Phys. 99, 4518 (1993), DOI : https://doi.org/10.1063/1.466051",
    "ref": "DEFAULT"
  }
}
