{
  "ident": "N-H2",
  "formula": "H2",
  "cas_number": "1333-74-0",
  "InChI": "1S/H2/h1H",
  "structure": "H:2",
  "name": "N-HYDROGEN",
  "aliases": [
    "NormalHydrogen",
    "N-Hydrogen",
    "R702n"
  ],
  "mol_weight": 2.01594,
  "critical": {
    "ref": "Default",
    "bib_reference": "",
    "temperature": 33.145,
    "pressure": 1296400.0,
    "compressibility": 0.303
  },
  "triple": {
    "ref": "Default",
    "bib_reference": "",
    "temperature": 0.0,
    "pressure": 0.0
  },
  "acentric_factor": {
    "ref": "Default",
    "bib_reference": "",
    "acf": -0.219
  },
  "boiling_temperature": {
    "bib_reference": "",
    "temperature": 20.369
  },
  "saturation": {
    "ref": "Default",
    "bib_reference": "",
    "correlation": 10,
    "ant": [
      0.0,
      0.0,
      0.0
    ],
    "Tmin": 15.0989,
    "Tmax": 32.6952
  },
  "ideal_heat_capacity-1": {
    "ref": "Default",
    "bib_reference": "",
    "correlation": 10,
    "cp": [
      28.671997,
      13.396156,
      0.002960131,
      -3.980744e-06,
      2.661667e-09,
      -6.099863e-13,
      -11.801371,
      0.0,
      0.0,
      0.0
    ],
    "Tmin": 5.0,
    "Tmax": 5.0
  },
  "reference_state": {
    "enthalpy_bib_reference": "",
    "enthalpy": 0.0,
    "entropy_bib_reference": "https://webbook.nist.gov : Cox, Wagman, et al., 1984",
    "entropy_ref_state": "1BAR",
    "entropy": 130.680
  },
  "rackett_factor": {
    "bib_reference": "",
    "Zra": 0.306
  },
  "dipole_moment": {
    "mu": 0.0,
    "bib_reference": ""
  },
  "quadrupole_moment": {
    "Q": 0.0,
    "bib_reference": ""
  },
  "SRK": {},
  "PR": {}
}
