{
  "ident": "O-H2",
  "formula": "H2",
  "cas_number": "1333-74-0",
  "InChI": "1S/H2/h1H",
  "structure": "H:2",
  "name": "ORTHO-HYDROGEN",
  "aliases": [
    "OrthoHydrogen",
    "O-Hydrogen",
    "R702o"
  ],
  "mol_weight": 2.01594,
  "critical": {
    "ref": "Default",
    "bib_reference": "NIST",
    "temperature": 33.22,
    "pressure": 1310650.0,
    "compressibility": 0.307
  },
  "triple": {
    "ref": "Default",
    "bib_reference": "",
    "temperature": 0.0,
    "pressure": 0.0
  },
  "acentric_factor": {
    "ref": "Default",
    "bib_reference": "",
    "acf": -0.218
  },
  "boiling_temperature": {
    "bib_reference": "",
    "temperature": 20.38
  },
  "saturation": {
    "ref": "Default",
    "bib_reference": "",
    "correlation": 10,
    "ant": [
      0.0,
      0.0,
      0.0
    ],
    "Tmin": 15.0989,
    "Tmax": 32.6952
  },
  "ideal_heat_capacity-1": {
    "ref": "MEOS",
    "bib_reference": "Leachman (2009), DOI: 10.1063/1.3160306",
    "correlation": 13,
    "cp": [
      2.5,
      2.54151,
      856.0,
      -2.3661,
      1444.0,
      1.00365,
      2194.0,
      1.22447,
      6968.0
    ],
    "Tmin": 14.008,
    "Tmax": 1000.0
  },
  "reference_state": {
    "enthalpy_bib_reference": "",
    "enthalpy": 0.0,
    "entropy_bib_reference": "https://webbook.nist.gov : Cox, Wagman, et al., 1984",
    "entropy_ref_state": "1BAR",
    "entropy": 130.680
  },
  "rackett_factor": {
    "bib_reference": "",
    "Zra": 0.306
  },
  "dipole_moment": {
    "mu": 0.0,
    "bib_reference": ""
  },
  "quadrupole_moment": {
    "Q": 0.0,
    "bib_reference": ""
  },
  "SRK": {},
  "PR": {},
    "SAFTVRMIE-1": {
    "m": 1.000,
    "sigma": 3.2571E-10,
    "eps_depth_divk": 17.9350,
    "lambda_a": 6.0000,
    "lambda_r": 8.0000,
    "mass": 3.3472E-27,
    "eps": 0.0000,
    "beta": 0.0000,
    "assoc_scheme": "None",
    "fh_order": 0,
    "bib_reference": "Aasen 2019, doi: 10.1063/1.5111364",
    "ref": "DEFAULT/AASEN2019-FH0"
  },
  "SAFTVRMIE-2": {
    "m": 1.000,
    "sigma": 3.0239E-10,
    "eps_depth_divk": 26.7160,
    "lambda_a": 6.0000,
    "lambda_r": 9.0000,
    "mass": 3.3472E-27,
    "eps": 0.0000,
    "beta": 0.0000,
    "assoc_scheme": "None",
    "fh_order": 1,
    "bib_reference": "Aasen 2019, doi: 10.1063/1.5111364",
    "ref": "AASEN2019-FH1"
  },
  "SAFTVRMIE-3": {
    "m": 1.000,
    "sigma": 2.9191E-10,
    "eps_depth_divk": 55.7490,
    "lambda_a": 6.0000,
    "lambda_r": 20.0000,
    "mass": 3.3472E-27,
    "eps": 0.0000,
    "beta": 0.0000,
    "assoc_scheme": "None",
    "fh_order": 2,
    "bib_reference": "Aasen 2019, doi: 10.1063/1.5111364",
    "ref": "AASEN2019-FH2"
  },
  "SAFTVRMIE-4": {
    "m": 1.000,
    "sigma": 3.3604E-10,
    "eps_depth_divk": 14.0840,
    "lambda_a": 6.0000,
    "lambda_r": 12.0000,
    "mass": 3.3472E-27,
    "eps": 0.0000,
    "beta": 0.0000,
    "assoc_scheme": "None",
    "fh_order": 0,
    "bib_reference": "Aasen 2019, doi: 10.1063/1.5111364",
    "ref": "AASEN2019-FH0-LJ"
  },
  "SAFTVRMIE-5": {
    "m": 1.000,
    "sigma": 3.0222E-10,
    "eps_depth_divk": 33.1070,
    "lambda_a": 6.0000,
    "lambda_r": 12.0000,
    "mass": 3.3472E-27,
    "eps": 0.0000,
    "beta": 0.0000,
    "assoc_scheme": "None",
    "fh_order": 1,
    "bib_reference": "Aasen 2019, doi: 10.1063/1.5111364",
    "ref": "AASEN2019-FH1-LJ"
  },
  "SAFTVRMIE-6": {
    "m": 1.000,
    "sigma": 2.9319E-10,
    "eps_depth_divk": 40.3420,
    "lambda_a": 6.0000,
    "lambda_r": 12.0000,
    "mass": 3.3472E-27,
    "eps": 0.0000,
    "beta": 0.0000,
    "assoc_scheme": "None",
    "fh_order": 2,
    "bib_reference": "Aasen 2019, doi: 10.1063/1.5111364",
    "ref": "AASEN2019-FH2-LJ"
  }
}
