{
  "ident": "O2",
  "formula": "O2",
  "cas_number": "7782-44-7",
  "name": "OXYGEN",
  "aliases": [
    "Oxygen",
    "R732"
  ],
  "mol_weight": 31.999,
  "critical": {
    "ref": "Default",
    "bib_reference": "",
    "temperature": 154.6,
    "pressure": 5045990.0,
    "compressibility": 0.288
  },
  "triple": {
    "ref": "Default",
    "bib_reference": "",
    "temperature": 0.0,
    "pressure": 0.0
  },
  "acentric_factor": {
    "ref": "Default",
    "bib_reference": "",
    "acf": 0.021
  },
  "boiling_temperature": {
    "bib_reference": "",
    "temperature": 90.2
  },
  "saturation": {
    "ref": "Default",
    "bib_reference": "",
    "correlation": 1,
    "ant": [
      15.4075,
      734.55,
      -6.45
    ],
    "Tmin": 63.0,
    "Tmax": 100.0
  },
  "ideal_heat_capacity-1": {
    "ref": "Default",
    "bib_reference": "",
    "correlation": 2,
    "cp": [
      -2.283574,
      0.95244,
      -0.00028114,
      6.55223e-07,
      -4.52316e-10,
      1.087744e-13,
      2.08031,
      0.0,
      0.0,
      0.0
    ],
    "Tmin": -175.0,
    "Tmax": 1200.0
  },
  "reference_state": {
    "bib_reference": "https://webbook.nist.gov",
    "enthalpy": 0.0,
    "entropy": 205.15
  },
  "standard_formation_energy": {
    "bib_reference": "",
    "enthalpy": 0.0,
    "gibbs": 0.0
  },
  "rackett_factor": {
    "bib_reference": "",
    "Zra": 0.2905
  },
  "dipole_moment": {
    "mu": 0.0,
    "bib_reference": ""
  },
  "quadrupole_moment": {
    "Q": 0.0,
    "bib_reference": ""
  },
  "SRK": {
    "TWU-1": {
      "ref": "tcRK",
      "bib_reference": "10.1016/j.fluid.2016.09.003",
      "correlation": [
        0.2118,
        0.902,
        1.8798
      ]
    },
    "MC-1": {
      "ref": "Chapoy2005",
      "bib_reference": "Thesis by Antonin Chapoy (2005)",
      "correlation": [
        0.545,
        -0.235,
        0.292
      ]
    },
    "volume_shift": {
      "ref": "tcRK",
      "bib_reference": "10.1016/j.fluid.2016.09.003",
      "ciA": 1.3456999999999999e-06,
      "ciB": 0.0,
      "ciC": 0.0,
      "correlation": 1
    }
  },
  "PR": {
    "TWU-1": {
      "ref": "tcPR",
      "bib_reference": "10.1016/j.fluid.2016.09.003",
      "correlation": [
        0.2129,
        0.8913,
        1.4005
      ]
    },
    "MC-1": {
      "ref": "Chapoy2005",
      "bib_reference": "Thesis by Antonin Chapoy (2005)",
      "correlation": [
        0.413,
        -0.017,
        0.092
      ]
    },
    "volume_shift": {
      "ref": "tcPR",
      "bib_reference": "10.1016/j.fluid.2016.09.003",
      "ciA": -2.7667e-06,
      "ciB": 0.0,
      "ciC": 0.0,
      "correlation": 1
    }
  },
  "PC-SAFT-1": {
    "m": 1.1217,
    "sigma": 3.2098E-10,
    "eps_depth_divk": 114.960,
    "eps": 0.0,
    "beta": 0.0,
    "assoc_scheme": "None",
    "bib_reference": "Kontogeorgis & Folas (2010). Doi: 10.1002/9780470747537",
    "ref": "Default/Kontogeorgis_Folas2001"
  },
  "SAFTVRMIE-1": {
    "m": 1.000,
    "sigma": 3.4330E-10,
    "eps_depth_divk": 113.00,
    "lambda_a": 6.00,
    "lambda_r": 12.00,
    "mass": 5.31339291e-26,
    "eps": 0.0000,
    "beta": 0.0000,
    "assoc_scheme": "None",
    "fh_order": 0,
    "bib_reference": "Chen, Rex and Yuen, W., Oxidation of Metals, 73 (2009), DOI : 10.1007/s11085-009-9180-z",
    "ref": "DEFAULT"
  }
}
