{
  "ident": "P-H2",
  "formula": "H2",
  "cas_number": "1333-74-0",
  "name": "PARA-HYDROGEN",
  "aliases": [
    "ParaHydrogen",
    "P-Hydrogen",
    "R702p"
  ],
  "mol_weight": 2.01594,
  "critical": {
    "ref": "Default",
    "bib_reference": "",
    "temperature": 32.938,
    "pressure": 1285800.0,
    "compressibility": 0.302
  },
  "triple": {
    "ref": "Default",
    "bib_reference": "",
    "temperature": 0.0,
    "pressure": 0.0
  },
  "acentric_factor": {
    "ref": "Default",
    "bib_reference": "",
    "acf": -0.219
  },
  "boiling_temperature": {
    "bib_reference": "",
    "temperature": 20.271
  },
  "saturation": {
    "ref": "Default",
    "bib_reference": "",
    "correlation": 10,
    "ant": [
      0.0,
      0.0,
      0.0
    ],
    "Tmin": 15.0,
    "Tmax": 32.5
  },
  "ideal_heat_capacity-1": {
    "ref": "Default",
    "bib_reference": "",
    "correlation": 10,
    "cp": [
      28.671997,
      13.396156,
      0.002960131,
      -3.980744e-06,
      2.661667e-09,
      -6.099863e-13,
      -11.801371,
      0.0,
      0.0,
      0.0
    ],
    "Tmin": 5.0,
    "Tmax": 5.0
  },
  "reference_state": {
    "bib_reference": "",
    "enthalpy": 0.0,
    "entropy": 0.0
  },
  "standard_formation_energy": {
    "bib_reference": "",
    "enthalpy": 0.0,
    "gibbs": 0.0
  },
  "rackett_factor": {
    "bib_reference": "",
    "Zra": 0.306
  },
  "dipole_moment": {
    "mu": 0.0,
    "bib_reference": ""
  },
  "quadrupole_moment": {
    "Q": 0.0,
    "bib_reference": ""
  },
  "melting_curve": {
    "bib_reference": "ISBN: 088318415X, https://srd.nist.gov/JPCRD/jpcrdS1Vol11.pdf",
    "ref": "DEFAULT",
    "correlation": "MP-1",
    "triple_temperature": 13.8,
    "maximum_temperature": 400.0,
    "reducing_pressure": 1.000000E+06,
    "reducing_temperature": 1.0,
    "n_coeff": 4,
    "n_coeff_1": 4,
    "n_coeff_2": 0,
    "n_coeff_3": 0,
    "coeff": [
      -26.5289115,
      0.248578596,
      -21.2823393,
      0.125746643,
      0.0,
      0.0
    ],
    "exponents": [
      0.0,
      1.764739,
      0.0,
      1.955,
      0.0,
      0.0
    ]
  },
  "sublimation_curve": {
    "bib_reference": "DOI: 10.1007/978-1-4613-9856-1_76",
    "ref": "DEFAULT",
    "correlation": "SL-2",
    "triple_temperature": 13.8,
    "minimum_temperature": 0.0,
    "reducing_pressure": 1.000000E+06,
    "reducing_temperature": 1.0,
    "n_coeff": 6,
    "n_coeff_1": 6,
    "n_coeff_2": 0,
    "n_coeff_3": 0,
    "coeff": [
      4.78288,
      -1.485636e2,
      2.32321e2,
      -5.60207e2,
      6.64126e2,
      -2.8906e2
    ],
    "exponents": [
      0.0,
      -1.0,
      -2.0,
      -3.0,
      -4.0,
      -5.0
    ]
  },
  "SRK": {},
  "PR": {},
  "SAFTVRMIE-1": {
    "m": 1.000,
    "sigma": 3.2557E-10,
    "eps_depth_divk": 17.8490,
    "lambda_a": 6.0000,
    "lambda_r": 8.0000,
    "mass": 3.3472E-27,
    "eps": 0.0000,
    "beta": 0.0000,
    "assoc_scheme": "None",
    "fh_order": 0,
    "bib_reference": "Aasen 2019, doi: 10.1063/1.5111364",
    "ref": "DEFAULT/AASEN2019-FH0"
  },
  "SAFTVRMIE-2": {
    "m": 1.000,
    "sigma": 3.0235E-10,
    "eps_depth_divk": 26.5860,
    "lambda_a": 6.0000,
    "lambda_r": 9.0000,
    "mass": 3.3472E-27,
    "eps": 0.0000,
    "beta": 0.0000,
    "assoc_scheme": "None",
    "fh_order": 1,
    "bib_reference": "Aasen 2019, doi: 10.1063/1.5111364",
    "ref": "AASEN2019-FH1"
  },
  "SAFTVRMIE-3": {
    "m": 1.000,
    "sigma": 2.9185E-10,
    "eps_depth_divk": 55.5190,
    "lambda_a": 6.0000,
    "lambda_r": 20.0000,
    "mass": 3.3472E-27,
    "eps": 0.0000,
    "beta": 0.0000,
    "assoc_scheme": "None",
    "fh_order": 2,
    "bib_reference": "Aasen 2019, doi: 10.1063/1.5111364",
    "ref": "AASEN2019-FH2"
  },
  "SAFTVRMIE-4": {
    "m": 1.000,
    "sigma": 3.8131E-10,
    "eps_depth_divk": 13.1970,
    "lambda_a": 6.0000,
    "lambda_r": 12.0000,
    "mass": 3.3472E-27,
    "eps": 0.0000,
    "beta": 0.0000,
    "assoc_scheme": "None",
    "fh_order": 0,
    "bib_reference": "Aasen 2019, doi: 10.1063/1.5111364",
    "ref": "AASEN2019-FH0-LJ"
  },
  "SAFTVRMIE-5": {
    "m": 1.000,
    "sigma": 3.0217E-10,
    "eps_depth_divk": 32.9550,
    "lambda_a": 6.0000,
    "lambda_r": 12.0000,
    "mass": 3.3472E-27,
    "eps": 0.0000,
    "beta": 0.0000,
    "assoc_scheme": "None",
    "fh_order": 1,
    "bib_reference": "Aasen 2019, doi: 10.1063/1.5111364",
    "ref": "AASEN2019-FH1-LJ"
  },
  "SAFTVRMIE-6": {
    "m": 1.000,
    "sigma": 2.9318E-10,
    "eps_depth_divk": 40.1520,
    "lambda_a": 6.0000,
    "lambda_r": 12.0000,
    "mass": 3.3472E-27,
    "eps": 0.0000,
    "beta": 0.0000,
    "assoc_scheme": "None",
    "fh_order": 2,
    "bib_reference": "Aasen 2019, doi: 10.1063/1.5111364",
    "ref": "AASEN2019-FH2-LJ"
  }
}
