{
  "ident": "R1234yf",
  "formula": "CF3CF=CH2",
  "cas_number": " 754-12-1",
  "name": "2,3,3,3-TETRAFLUOROPROPENE",
  "aliases": [
    "R1234yf"
  ],
  "mol_weight": 114.041593,
  "critical": {
    "ref": "Default",
    "bib_reference": "",
    "temperature": 367.85,
    "pressure": 3382200.0,
    "compressibility": 0.265190398
  },
  "triple": {
    "ref": "Default",
    "bib_reference": "",
    "temperature": 0.0,
    "pressure": 0.0
  },
  "acentric_factor": {
    "ref": "Default",
    "bib_reference": "",
    "acf": 0.276
  },
  "boiling_temperature": {
    "bib_reference": "",
    "temperature": 243.7
  },
  "saturation": {
    "ref": "Default",
    "bib_reference": "",
    "correlation": 1,
    "ant": [
      16.7996,
      2411.12,
      -6.30281
    ],
    "Tmin": 243.7,
    "Tmax": 366.07
  },
  "ideal_heat_capacity-1": {
    "ref": "Default",
    "bib_reference": "",
    "correlation": 6,
    "cp": [
      0.213968,
      0.0021072,
      1.8967e-06,
      -6.68177e-09,
      4.25854e-12,
      0.0,
      0.0,
      0.0,
      0.0,
      0.0
    ],
    "Tmin": 170.0,
    "Tmax": 1000.0
  },
  "reference_state": {
    "bib_reference": "",
    "enthalpy": 0.0,
    "entropy": 0.0
  },
  "standard_formation_energy": {
    "bib_reference": "",
    "enthalpy": 0.0,
    "gibbs": 0.0
  },
  "rackett_factor": {
    "bib_reference": "10.1016/j.fluid.2016.09.003",
    "Zra": 0.2645
  },
  "dipole_moment": {
    "mu": 0.0,
    "bib_reference": ""
  },
  "quadrupole_moment": {
    "Q": 0.0,
    "bib_reference": ""
  },
  "SRK": {
    "TWU-1": {
      "ref": "tcRK",
      "bib_reference": "10.1016/j.fluid.2016.09.003",
      "correlation": [
        0.2429,
        0.8455,
        2.6236
      ]
    },
    "volume_shift": {
      "ref": "tcRK",
      "bib_reference": "10.1016/j.fluid.2016.09.003",
      "ciA": 1.4296099999999999e-05,
      "ciB": 0.0,
      "ciC": 0.0,
      "correlation": 1
    }
  },
  "PR": {
    "TWU-1": {
      "ref": "tcPR",
      "bib_reference": "10.1016/j.fluid.2016.09.003",
      "correlation": [
        0.1712,
        0.8374,
        2.5813
      ]
    },
    "volume_shift": {
      "ref": "tcPR",
      "bib_reference": "10.1016/j.fluid.2016.09.003",
      "ciA": 4.909999999999999e-07,
      "ciB": 0.0,
      "ciC": 0.0,
      "correlation": 1
    }
  }
}
