{
  "ident": "R124a",
  "formula": "C2HCLF4",
  "cas_number": "354-25-6",
  "name": "1-CHLORO-1,1,2,2-TETRAFLUOROETHANE",
  "aliases": [
    "R124a",
    "1-Chloro-1_1_2_2-tetraFluoroEthane"
  ],
  "mol_weight": 136.475,
  "critical": {
    "ref": "Default",
    "bib_reference": "",
    "temperature": 399.9,
    "pressure": 3720000.0,
    "compressibility": 0.273
  },
  "triple": {
    "ref": "Default",
    "bib_reference": "",
    "temperature": 0.0,
    "pressure": 0.0
  },
  "acentric_factor": {
    "ref": "Default",
    "bib_reference": "",
    "acf": 0.281
  },
  "boiling_temperature": {
    "bib_reference": "",
    "temperature": 263.0
  },
  "saturation": {
    "ref": "Default",
    "bib_reference": "",
    "correlation": 2,
    "ant": [
      0.0,
      0.0,
      0.0
    ],
    "Tmin": 0.0,
    "Tmax": 0.0
  },
  "ideal_heat_capacity-1": {
    "ref": "Default",
    "bib_reference": "",
    "correlation": 4,
    "cp": [
      12.7,
      0.3795,
      -0.000346,
      1.154e-07,
      0.0,
      0.0,
      0.0,
      0.0,
      0.0,
      0.0
    ],
    "Tmin": 0.0,
    "Tmax": 0.0
  },
  "reference_state": {
    "bib_reference": "",
    "enthalpy": 0.0,
    "entropy": 0.0
  },
  "standard_formation_energy": {
    "bib_reference": "",
    "enthalpy": 0.0,
    "gibbs": 0.0
  },
  "rackett_factor": {
    "bib_reference": "",
    "Zra": -1.0
  },
  "dipole_moment": {
    "mu": 0.0,
    "bib_reference": ""
  },
  "quadrupole_moment": {
    "Q": 0.0,
    "bib_reference": ""
  },
  "SRK": {},
  "PR": {}
}
