{
  "ident": "R125",
  "formula": "C2HF5",
  "cas_number": "354-33-6",
  "InChI": "1S/C2HF5/c3-1(4)2(5,6)7/h1H",
  "structure": "C:2;H:1;F:5",
  "name": "PENTAFLUOROETHANE",
  "aliases": [
    "R125",
    "PentaFluoroEthane"
  ],
  "mol_weight": 120.03,
  "critical": {
    "ref": "Default",
    "bib_reference": "",
    "temperature": 343.7,
    "pressure": 3870000.0,
    "compressibility": 0.2986
  },
  "triple": {
    "ref": "Default",
    "bib_reference": "",
    "temperature": 0.0,
    "pressure": 0.0
  },
  "acentric_factor": {
    "ref": "Default",
    "bib_reference": "",
    "acf": 0.269
  },
  "boiling_temperature": {
    "bib_reference": "",
    "temperature": 224.65
  },
  "saturation": {
    "ref": "Default",
    "bib_reference": "",
    "correlation": 2,
    "ant": [
      0.0,
      0.0,
      0.0
    ],
    "Tmin": 0.0,
    "Tmax": 0.0
  },
  "ideal_heat_capacity-1": {
    "ref": "Default",
    "bib_reference": "",
    "correlation": 4,
    "cp": [
      5.37,
      0.3845,
      -0.000342,
      1.12e-07,
      0.0,
      0.0,
      0.0,
      0.0,
      0.0,
      0.0
    ],
    "Tmin": 0.0,
    "Tmax": 0.0
  },
  "reference_state": {
    "enthalpy_bib_reference": "",
    "enthalpy": 0.0,
    "entropy_bib_reference": "",
    "entropy_ref_state": "1BAR",
    "entropy": 0.0
  },
  "rackett_factor": {
    "bib_reference": "10.1016/j.fluid.2016.09.003",
    "Zra": 0.2671
  },
  "dipole_moment": {
    "mu": 0.0,
    "bib_reference": ""
  },
  "quadrupole_moment": {
    "Q": 0.0,
    "bib_reference": ""
  },
  "SRK": {
    "TWU-1": {
      "ref": "tcRK",
      "bib_reference": "10.1016/j.fluid.2016.09.003",
      "correlation": [
        0.264,
        0.8463,
        2.6096
      ]
    },
    "volume_shift": {
      "ref": "tcRK",
      "bib_reference": "10.1016/j.fluid.2016.09.003",
      "ciA": 1.0403999999999999e-05,
      "ciB": 0.0,
      "ciC": 0.0,
      "correlation": 1
    }
  },
  "PR": {
    "TWU-1": {
      "ref": "tcPR",
      "bib_reference": "10.1016/j.fluid.2016.09.003",
      "correlation": [
        0.178,
        0.8414,
        2.6936
      ]
    },
    "volume_shift": {
      "ref": "tcPR",
      "bib_reference": "10.1016/j.fluid.2016.09.003",
      "ciA": -1.4502e-06,
      "ciB": 0.0,
      "ciC": 0.0,
      "correlation": 1
    }
  }
}
