{
  "ident": "R14",
  "formula": "CF4",
  "cas_number": "75-73-0",
  "InChI": "1S/CF4/c2-1(3,4)5",
  "structure": "C:1;F:4",
  "name": "CARBON TETRAFLUORIDE",
  "aliases": [
    "R14",
    "CarbonTetraFluoride"
  ],
  "mol_weight": 88.005,
  "critical": {
    "ref": "Default",
    "bib_reference": "",
    "temperature": 227.6,
    "pressure": 3738900.0,
    "compressibility": 0.277
  },
  "triple": {
    "ref": "Default",
    "bib_reference": "",
    "temperature": 0.0,
    "pressure": 0.0
  },
  "acentric_factor": {
    "ref": "Default",
    "bib_reference": "",
    "acf": 0.191
  },
  "boiling_temperature": {
    "bib_reference": "",
    "temperature": 145.2
  },
  "saturation": {
    "ref": "Default",
    "bib_reference": "",
    "correlation": 1,
    "ant": [
      16.0543,
      1244.55,
      -13.06
    ],
    "Tmin": 93.0,
    "Tmax": 148.0
  },
  "ideal_heat_capacity-1": {
    "ref": "Default",
    "bib_reference": "",
    "correlation": 1,
    "cp": [
      3.339,
      0.04838,
      -3.883e-05,
      1.078e-08,
      0.0,
      0.0,
      0.0,
      0.0,
      0.0,
      0.0
    ],
    "Tmin": 0.0,
    "Tmax": 0.0
  },
  "reference_state": {
    "enthalpy_bib_reference": "https://webbook.nist.gov",
    "enthalpy": -930.0e3,
    "entropy_bib_reference": "https://webbook.nist.gov : Chase, 1998",
    "entropy_ref_state": "1BAR",
    "entropy": 261.41
  },
  "rackett_factor": {
    "bib_reference": "10.1016/j.fluid.2016.09.003",
    "Zra": 0.281
  },
  "dipole_moment": {
    "mu": 0.0,
    "bib_reference": ""
  },
  "quadrupole_moment": {
    "Q": 0.0,
    "bib_reference": ""
  },
  "SRK": {
    "TWU-1": {
      "ref": "tcRK",
      "bib_reference": "10.1016/j.fluid.2016.09.003",
      "correlation": [
        0.2404,
        0.8659,
        2.3126
      ]
    },
    "volume_shift": {
      "ref": "tcRK",
      "bib_reference": "10.1016/j.fluid.2016.09.003",
      "ciA": 3.3487e-06,
      "ciB": 0.0,
      "ciC": 0.0,
      "correlation": 1
    }
  },
  "PR": {
    "TWU-1": {
      "ref": "tcPR",
      "bib_reference": "10.1016/j.fluid.2016.09.003",
      "correlation": [
        0.1653,
        0.8584,
        2.2953
      ]
    },
    "volume_shift": {
      "ref": "tcPR",
      "bib_reference": "10.1016/j.fluid.2016.09.003",
      "ciA": -4.5258e-06,
      "ciB": 0.0,
      "ciC": 0.0,
      "correlation": 1
    }
  }
}
