{
  "ident": "R143a",
  "formula": "C2H3F3",
  "cas_number": "420-46-2",
  "InChI": "1S/C2H3F3/c1-2(3,4)5/h1H3",
  "structure": "C:2;H:3;F:3",
  "name": "1,1,1-TRIFLUOROETHANE",
  "aliases": [
    "R143a",
    "1_1_1-TriFluoroEthane"
  ],
  "mol_weight": 84.041,
  "critical": {
    "ref": "Default",
    "bib_reference": "",
    "temperature": 346.3,
    "pressure": 3760000.0,
    "compressibility": 0.253
  },
  "triple": {
    "ref": "Default",
    "bib_reference": "",
    "temperature": 0.0,
    "pressure": 0.0
  },
  "acentric_factor": {
    "ref": "Default",
    "bib_reference": "",
    "acf": 0.251
  },
  "boiling_temperature": {
    "bib_reference": "",
    "temperature": 225.6
  },
  "saturation": {
    "ref": "Default",
    "bib_reference": "",
    "correlation": 2,
    "ant": [
      0.0,
      0.0,
      0.0
    ],
    "Tmin": 0.0,
    "Tmax": 0.0
  },
  "ideal_heat_capacity-1": {
    "ref": "Default",
    "bib_reference": "",
    "correlation": 4,
    "cp": [
      5.744,
      0.3141,
      -0.0002597,
      8.415e-08,
      0.0,
      0.0,
      0.0,
      0.0,
      0.0,
      0.0
    ],
    "Tmin": 0.0,
    "Tmax": 0.0
  },
  "reference_state": {
    "enthalpy_bib_reference": "https://webbook.nist.gov : Wu and Rodgers, 1974",
    "enthalpy_ref_state": "1ATM",
    "enthalpy": -748.7e3,
    "entropy_bib_reference": "",
    "entropy_ref_state": "1BAR",
    "entropy": 0.0
  },
  "standard_formation_energy": {
    "bib_reference": "ISBN: 978-0070116825",
    "enthalpy": -745600.0,
    "gibbs": -678700.0
  },
  "rackett_factor": {
    "bib_reference": "10.1016/j.fluid.2016.09.003",
    "Zra": 0.2567
  },
  "dipole_moment": {
    "mu": 0.0,
    "bib_reference": ""
  },
  "quadrupole_moment": {
    "Q": 0.0,
    "bib_reference": ""
  },
  "SRK": {
    "TWU-1": {
      "ref": "tcRK",
      "bib_reference": "10.1016/j.fluid.2016.09.003",
      "correlation": [
        0.2957,
        0.8623,
        2.3633
      ]
    },
    "volume_shift": {
      "ref": "tcRK",
      "bib_reference": "10.1016/j.fluid.2016.09.003",
      "ciA": 1.6509899999999996e-05,
      "ciB": 0.0,
      "ciC": 0.0,
      "correlation": 1
    }
  },
  "PR": {
    "TWU-1": {
      "ref": "tcPR",
      "bib_reference": "10.1016/j.fluid.2016.09.003",
      "correlation": [
        0.2037,
        0.856,
        2.4558
      ]
    },
    "volume_shift": {
      "ref": "tcPR",
      "bib_reference": "10.1016/j.fluid.2016.09.003",
      "ciA": 4.7833e-06,
      "ciB": 0.0,
      "ciC": 0.0,
      "correlation": 1
    }
  }
}
