{
  "ident": "R21",
  "formula": "CHCL2F",
  "cas_number": "75-43-4",
  "name": "DICHLOROFLUOROMETHANE",
  "aliases": [
    "R21",
    "DiChloroMonoFluoroMethane"
  ],
  "mol_weight": 102.923,
  "critical": {
    "ref": "Default",
    "bib_reference": "",
    "temperature": 451.6,
    "pressure": 5167600.0,
    "compressibility": 0.272
  },
  "triple": {
    "ref": "Default",
    "bib_reference": "",
    "temperature": 0.0,
    "pressure": 0.0
  },
  "acentric_factor": {
    "ref": "Default",
    "bib_reference": "",
    "acf": 0.202
  },
  "boiling_temperature": {
    "bib_reference": "",
    "temperature": 282.0
  },
  "saturation": {
    "ref": "Default",
    "bib_reference": "",
    "correlation": 2,
    "ant": [
      0.0,
      0.0,
      0.0
    ],
    "Tmin": 0.0,
    "Tmax": 0.0
  },
  "ideal_heat_capacity-1": {
    "ref": "Default",
    "bib_reference": "",
    "correlation": 1,
    "cp": [
      5.652,
      0.03777,
      -2.866e-05,
      7.795e-09,
      0.0,
      0.0,
      0.0,
      0.0,
      0.0,
      0.0
    ],
    "Tmin": 0.0,
    "Tmax": 0.0
  },
  "reference_state": {
    "bib_reference": "",
    "enthalpy": 0.0,
    "entropy": 0.0
  },
  "standard_formation_energy": {
    "bib_reference": "",
    "enthalpy": 0.0,
    "gibbs": 0.0
  },
  "rackett_factor": {
    "bib_reference": "",
    "Zra": 0.2705
  },
  "dipole_moment": {
    "mu": 0.0,
    "bib_reference": ""
  },
  "quadrupole_moment": {
    "Q": 0.0,
    "bib_reference": ""
  },
  "SRK": {
    "TWU-1": {
      "ref": "tcRK",
      "bib_reference": "10.1016/j.fluid.2016.09.003",
      "correlation": [
        0.2049,
        0.8509,
        2.5347
      ]
    },
    "volume_shift": {
      "ref": "tcRK",
      "bib_reference": "10.1016/j.fluid.2016.09.003",
      "ciA": 9.5053e-06,
      "ciB": 0.0,
      "ciC": 0.0,
      "correlation": 1
    }
  },
  "PR": {
    "TWU-1": {
      "ref": "tcPR",
      "bib_reference": "10.1016/j.fluid.2016.09.003",
      "correlation": [
        0.1441,
        0.8515,
        2.525
      ]
    },
    "volume_shift": {
      "ref": "tcPR",
      "bib_reference": "10.1016/j.fluid.2016.09.003",
      "ciA": -1.7849999999999999e-06,
      "ciB": 0.0,
      "ciC": 0.0,
      "correlation": 1
    }
  }
}
