{
  "ident": "F6S",
  "formula": "F6S",
  "cas_number": "2551-62-4",
  "name": "SULFUR HEXAFLUORIDE",
  "aliases": [
    "SulfurHexaFluoride"
  ],
  "mol_weight": 146.054,
  "critical": {
    "ref": "Default",
    "bib_reference": "",
    "temperature": 318.7,
    "pressure": 3760000.0,
    "compressibility": 0.282
  },
  "triple": {
    "ref": "Default",
    "bib_reference": "",
    "temperature": 0.0,
    "pressure": 0.0
  },
  "acentric_factor": {
    "ref": "Default",
    "bib_reference": "",
    "acf": 0.286
  },
  "boiling_temperature": {
    "bib_reference": "",
    "temperature": 209.6
  },
  "saturation": {
    "ref": "Default",
    "bib_reference": "",
    "correlation": 2,
    "ant": [
      0.0,
      0.0,
      0.0
    ],
    "Tmin": 0.0,
    "Tmax": 0.0
  },
  "ideal_heat_capacity-1": {
    "ref": "Default",
    "bib_reference": "",
    "correlation": 4,
    "cp": [
      -0.6599,
      0.4639,
      -0.0005089,
      1.953e-07,
      0.0,
      0.0,
      0.0,
      0.0,
      0.0,
      0.0
    ],
    "Tmin": 0.0,
    "Tmax": 0.0
  },
  "reference_state": {
    "bib_reference": "",
    "enthalpy": 0.0,
    "entropy": 0.0
  },
  "standard_formation_energy": {
    "bib_reference": "",
    "enthalpy": 0.0,
    "gibbs": 0.0
  },
  "rackett_factor": {
    "bib_reference": "10.1016/j.fluid.2016.09.003",
    "Zra": 0.2788
  },
  "dipole_moment": {
    "mu": 0.0,
    "bib_reference": ""
  },
  "quadrupole_moment": {
    "Q": 0.0,
    "bib_reference": ""
  },
  "melting_curve": {
    "bib_reference": "DOI: 10.1063/1.5005537",
    "ref": "DEFAULT",
    "correlation": "ML-1",
    "triple_temperature": 223.555,
    "maximum_temperature": 650.0,
    "reducing_pressure": 2.314290E+05,
    "reducing_temperature": 223.555,
    "n_coeff": 2,
    "n_coeff_1": 1,
    "n_coeff_2": 0,
    "n_coeff_3": 0,
    "coeff": [
      1.0,
      966.603148,
      0.0,
      0.0,
      0.0,
      0.0
    ],
    "exponents": [
      0.0,
      1.555,
      0.0,
      0.0,
      0.0,
      0.0
    ]
  },
  "sublimation_curve": {
    "bib_reference": "DOI: 10.1063/1.3037344",
    "ref": "DEFAULT",
    "correlation": "SL-2",
    "triple_temperature": 223.555,
    "minimum_temperature": 0.0,
    "reducing_pressure": 2.314290E+05,
    "reducing_temperature": 223.555,
    "n_coeff": 2,
    "n_coeff_1": 2,
    "n_coeff_2": 0,
    "n_coeff_3": 0,
    "coeff": [
      -11.6942141,
      11.6942141,
      0.0,
      0.0,
      0.0,
      0.0
    ],
    "exponents": [
      -1.07,
      0.0,
      0.0,
      0.0,
      0.0,
      0.0
    ]
  },
  "SRK": {
    "TWU-1": {
      "ref": "tcRK",
      "bib_reference": "10.1016/j.fluid.2016.09.003",
      "correlation": [
        1.0589,
        0.8354,
        0.7307
      ]
    },
    "volume_shift": {
      "ref": "tcRK",
      "bib_reference": "10.1016/j.fluid.2016.09.003",
      "ciA": 5.3972e-06,
      "ciB": 0.0,
      "ciC": 0.0,
      "correlation": 1
    }
  },
  "PR": {
    "TWU-1": {
      "ref": "tcPR",
      "bib_reference": "10.1016/j.fluid.2016.09.003",
      "correlation": [
        0.4935,
        0.4816,
        0.8175
      ]
    },
    "volume_shift": {
      "ref": "tcPR",
      "bib_reference": "10.1016/j.fluid.2016.09.003",
      "ciA": -5.4941000000000005e-06,
      "ciB": 0.0,
      "ciC": 0.0,
      "correlation": 1
    }
  }
}
