{
  "ident": "SO2",
  "formula": "SO2",
  "cas_number": "7446-09-5",
  "name": "SULFUR DIOXIDE",
  "aliases": [
    "SulphurDioxide",
    "OxosulfaneOxide"
  ],
  "mol_weight": 64.065,
  "critical": {
    "ref": "Default",
    "bib_reference": "",
    "temperature": 430.8,
    "pressure": 7885000.0,
    "compressibility": 0.269
  },
  "triple": {
    "ref": "Default",
    "bib_reference": "",
    "temperature": 0.0,
    "pressure": 0.0
  },
  "acentric_factor": {
    "ref": "Default",
    "bib_reference": "",
    "acf": 0.251
  },
  "boiling_temperature": {
    "bib_reference": "",
    "temperature": 263.13
  },
  "saturation": {
    "ref": "Default",
    "bib_reference": "",
    "correlation": 1,
    "ant": [
      16.7681,
      2302.4,
      -35.96
    ],
    "Tmin": 199.71,
    "Tmax": 279.47
  },
  "ideal_heat_capacity-1": {
    "ref": "Default",
    "bib_reference": "",
    "correlation": 6,
    "cp": [
      0.5732,
      -0.00028993,
      3.0421e-06,
      -4.2452e-09,
      1.8079e-12,
      0.0,
      0.0,
      0.0,
      0.0,
      0.0
    ],
    "Tmin": 50.0,
    "Tmax": 1000.0
  },
  "reference_state": {
    "bib_reference": "",
    "enthalpy": 0.0,
    "entropy": 0.0
  },
  "standard_formation_energy": {
    "bib_reference": "",
    "enthalpy": 0.0,
    "gibbs": 0.0
  },
  "rackett_factor": {
    "bib_reference": "",
    "Zra": 0.2661
  },
  "dipole_moment": {
    "mu": 0.0,
    "bib_reference": ""
  },
  "quadrupole_moment": {
    "Q": 0.0,
    "bib_reference": ""
  },
  "SRK": {
    "TWU-1": {
      "ref": "tcRK",
      "bib_reference": "10.1016/j.fluid.2016.09.003",
      "correlation": [
        0.4014,
        0.8358,
        1.7355
      ]
    },
    "volume_shift": {
      "ref": "tcRK",
      "bib_reference": "10.1016/j.fluid.2016.09.003",
      "ciA": 6.999299999999999e-06,
      "ciB": 0.0,
      "ciC": 0.0,
      "correlation": 1
    }
  },
  "PR": {
    "TWU-1": {
      "ref": "tcPR",
      "bib_reference": "10.1016/j.fluid.2016.09.003",
      "correlation": [
        0.4184,
        0.8238,
        1.4068
      ]
    },
    "volume_shift": {
      "ref": "tcPR",
      "bib_reference": "10.1016/j.fluid.2016.09.003",
      "ciA": -4.929999999999999e-08,
      "ciB": 0.0,
      "ciC": 0.0,
      "correlation": 1
    }
  }
}
