{
  "ident": "TOLU",
  "formula": "C7H8",
  "cas_number": "108-88-3",
  "name": "TOLUENE",
  "aliases": [
    "Toluene",
    "MethylBenzene"
  ],
  "mol_weight": 92.141,
  "critical": {
    "ref": "Default",
    "bib_reference": "",
    "temperature": 591.79,
    "pressure": 4108600.0,
    "compressibility": 0.264
  },
  "triple": {
    "ref": "Default",
    "bib_reference": "",
    "temperature": 0.0,
    "pressure": 0.0
  },
  "acentric_factor": {
    "ref": "Default",
    "bib_reference": "",
    "acf": 0.2641
  },
  "boiling_temperature": {
    "bib_reference": "",
    "temperature": 383.78
  },
  "saturation": {
    "ref": "Default",
    "bib_reference": "",
    "correlation": 2,
    "ant": [
      0.0,
      0.0,
      0.0
    ],
    "Tmin": 0.0,
    "Tmax": 0.0
  },
  "ideal_heat_capacity-1": {
    "ref": "Default",
    "bib_reference": "",
    "correlation": 7,
    "cp": [
      58140.0,
      286300.0,
      1440.6,
      189800.0,
      -650.43,
      0.0,
      0.0,
      0.0,
      0.0,
      0.0
    ],
    "Tmin": 200.0,
    "Tmax": 1500.0
  },
  "reference_state": {
    "bib_reference": "",
    "enthalpy": 0.0,
    "entropy": 0.0
  },
  "standard_formation_energy": {
    "bib_reference": "",
    "enthalpy": 0.0,
    "gibbs": 0.0
  },
  "rackett_factor": {
    "bib_reference": "10.1016/j.fluid.2016.09.003",
    "Zra": 0.2643
  },
  "dipole_moment": {
    "mu": 0.0,
    "bib_reference": ""
  },
  "quadrupole_moment": {
    "Q": 0.0,
    "bib_reference": ""
  },
  "SRK": {
    "MC-1": {
      "ref": "Chapoy2005",
      "bib_reference": "Thesis by Antonin Chapoy (2005)",
      "correlation": [
        0.923,
        -0.301,
        0.494
      ]
    },
    "TWU-1": {
      "ref": "tcRK",
      "bib_reference": "10.1016/j.fluid.2016.09.003",
      "correlation": [
        0.3252,
        0.8438,
        2.1
      ]
    },
    "volume_shift": {
      "ref": "tcRK",
      "bib_reference": "10.1016/j.fluid.2016.09.003",
      "ciA": 1.9668399999999996e-05,
      "ciB": 0.0,
      "ciC": 0.0,
      "correlation": 1
    }
  },
  "PR": {
    "MC-1": {
      "ref": "Chapoy2005",
      "bib_reference": "Thesis by Antonin Chapoy (2005)",
      "correlation": [
        0.762,
        -0.042,
        0.271
      ]
    },
    "TWU-1": {
      "ref": "tcPR",
      "bib_reference": "10.1016/j.fluid.2016.09.003",
      "correlation": [
        0.3094,
        0.8305,
        1.7808
      ]
    },
    "volume_shift": {
      "ref": "tcPR",
      "bib_reference": "10.1016/j.fluid.2016.09.003",
      "ciA": 1.2369e-06,
      "ciB": 0.0,
      "ciC": 0.0,
      "correlation": 1
    }
  },
  "PC-SAFT-1": {
    "m": 2.8149,
    "sigma": 3.7169E-10,
    "eps_depth_divk": 285.690,
    "eps": 0.0,
    "beta": 0.0,
    "assoc_scheme": "None",
    "bib_reference": "Kontogeorgis & Folas (2010). Doi: 10.1002/9780470747537",
    "ref": "Default/Kontogeorgis_Folas2001"
  }
}
