{
  "ident": "H2O",
  "formula": "H2O",
  "cas_number": "7732-18",
  "name": "WATER",
  "aliases": [
    "Water"
  ],
  "mol_weight": 18.015,
  "critical": {
    "ref": "Default",
    "bib_reference": "",
    "temperature": 647.3,
    "pressure": 22048300.0,
    "compressibility": 0.229
  },
  "triple": {
    "ref": "Default",
    "bib_reference": "",
    "temperature": 0.0,
    "pressure": 0.0
  },
  "acentric_factor": {
    "ref": "Default",
    "bib_reference": "",
    "acf": 0.344
  },
  "boiling_temperature": {
    "bib_reference": "",
    "temperature": 373.2
  },
  "saturation": {
    "ref": "Default",
    "bib_reference": "",
    "correlation": 1,
    "ant": [
      18.3036,
      3816.44,
      -46.13
    ],
    "Tmin": 284.0,
    "Tmax": 441.0
  },
  "ideal_heat_capacity-1": {
    "ref": "Default",
    "bib_reference": "",
    "correlation": 2,
    "cp": [
      -5.729915,
      1.915007,
      -0.000395741,
      8.76232e-07,
      -4.95086e-10,
      1.038613e-13,
      0.702815,
      0.0,
      0.0,
      0.0
    ],
    "Tmin": -175.0,
    "Tmax": 1200.0
  },
  "reference_state": {
    "bib_reference": "https://webbook.nist.gov",
    "enthalpy": -241826.4,
    "entropy": 188.84
  },
  "standard_formation_energy": {
    "bib_reference": "",
    "enthalpy": 0.0,
    "gibbs": 0.0
  },
  "rackett_factor": {
    "bib_reference": "",
    "Zra": 0.2338
  },
  "dipole_moment": {
    "mu": 0.0,
    "bib_reference": ""
  },
  "quadrupole_moment": {
    "Q": 0.0,
    "bib_reference": ""
  },
  "melting_line": {
    "bib_reference": "DOI: 10.1063/1.555947",
    "correlation": "MH",
    "minimum_temperature": 251.165,
    "maximum_temperature": 1350.0,
    "reducing_temperature": 273.16,
    "reducing_pressure": 611.657,
    "n_coeff": 4,
    "coeff": [
      0.119539337E7,
      0.808183159E5,
      0.333826860E4,
      -0.299948,
      0.0,
      0.0
    ],
    "exponents": [
      0.30000E1,
      0.25750E2,
      0.10375E3,
      60,
      0.0,
      0.0
    ]
  },
  "sublimation_line": {
    "bib_reference": "DOI: 10.1063/1.3657937",
    "correlation": "S2",
    "minimum_temperature": 0.0,
    "maximum_temperature": 273.16,
    "reducing_temperature": 273.16,
    "reducing_pressure": 0.611657,
    "n_coeff": 3,
    "coeff": [
      -21.2144006,
      27.3203819,
      -6.10598130,
      0.0,
      0.0,
      0.0
    ],
    "exponents": [
      -0.99666666667,
      0.20666667,
      0.70333333,
      0.0,
      0.0,
      0.0
    ]
  },
  "SRK": {
    "TWU-1": {
      "ref": "tcRK",
      "bib_reference": "10.1016/j.fluid.2016.09.003",
      "correlation": [
        0.4163,
        0.8756,
        2.1842
      ]
    },
    "MC-1": {
      "ref": "Chapoy2005",
      "bib_reference": "Thesis by Antonin Chapoy (2005)",
      "correlation": [
        1.095,
        -0.678,
        0.7
      ]
    },
    "volume_shift": {
      "ref": "tcRK",
      "bib_reference": "10.1016/j.fluid.2016.09.003",
      "ciA": 8.999499999999999e-06,
      "ciB": 0.0,
      "ciC": 0.0,
      "correlation": 1
    },
    "CPA-1": {
      "ref": "Default/Queimada2005",
      "bib_reference": "10.1016/j.fluid.2004.08.011",
      "a0": 1.2277E+5,
      "b": 1.4515e-02,
      "alphaParams": [0.67359,0.0,0.0],
      "alphaCorr": "Classic",
      "eps": 166.55e2,
      "beta": 69.2E-03,
      "assoc_scheme": "4C"
    },
    "CPA-2": {
      "ref": "SINTEF",
      "bib_reference": "",
      "a0": 4.67542e+05,
      "b": 1.57983e-02,
      "alphaParams": [7.76671e-01,0.0,0.0],
      "alphaCorr": "Classic",
      "eps": 4.44953e+03,
      "beta": 6.21918e-03,
      "assoc_scheme": "2B"
    }
  },
  "PR": {
    "TWU-1": {
      "ref": "tcPR",
      "bib_reference": "10.1016/j.fluid.2016.09.003",
      "correlation": [
        0.3865,
        0.872,
        1.9693
      ]
    },
    "MC-1": {
      "ref": "Chapoy2005",
      "bib_reference": "Thesis by Antonin Chapoy (2005)",
      "correlation": [
        0.919,
        -0.332,
        0.317
      ]
    },
    "volume_shift-1": {
      "ref": "tcPR",
      "bib_reference": "10.1016/j.fluid.2016.09.003",
      "ciA": 5.3041e-06,
      "ciB": 0.0,
      "ciC": 0.0,
      "correlation": 1
    },
    "volume_shift-2": {
      "ref": "tcPR-ENGINEERING",
      "bib_reference": "",
      "ciA": -8.128038e-8,
      "ciB": 1.044558e-8,
      "ciC": 0.0,
      "correlation": 2
    }
  },
  "PC-SAFT-1": {
    "m": 1.500,
    "sigma": 2.6273E-10,
    "eps_depth_divk": 180.300,
    "eps": 15001.119744924437,
    "beta": 0.0942,
    "assoc_scheme": "4C",
    "bib_reference": "Grenner et al. (2006). Doi: 10.1021/ie0605332",
    "ref": "Default/Grenner2006"
  },
  "PC-SAFT-2": {
    "m": 1.0656,
    "sigma": 3.0007E-10,
    "eps_depth_divk": 366.510,
    "eps": 20791.976669215805,
    "beta": 0.034868,
    "assoc_scheme": "2B",
    "bib_reference": "Kontogeorgis & Folas (2010). Doi: 10.1002/9780470747537",
    "ref": "Kontogeorgis_Folas2001"
  },
  "SAFTVRMIE-1": {
    "m": 1.0,
    "sigma": 3.0555E-10,
    "eps_depth_divk": 418.00,
    "lambda_a": 6.0000,
    "lambda_r": 35.823,
    "mass": 2.992E-26,
    "eps": 1600.0,
    "beta": 496.66E-30,
    "assoc_scheme": "4C",
    "fh_order": 0,
    "bib_reference": "Dufal (2015) - 10.1080/00268976.2015.1029027",
    "ref": "DEFAULT/Dufal2015"
  },
  "SAFTVRMIE-2": {
    "m": 1.25656,
    "sigma": 2.802422E-10,
    "eps_depth_divk": 3.512321E+02,
    "lambda_a": 6.0000,
    "lambda_r": 2.512615E+01,
    "mass": 2.992E-26,
    "eps": 1.630570E+03,
    "beta": 177.6236E-30,
    "assoc_scheme": "4C",
    "fh_order": 0,
    "bib_reference": "Unpublished water parameters (courtesy of Edward Graham)",
    "ref": "Graham"
  }
}
