{
  "ident": "XE",
  "formula": "XE",
  "cas_number": "7440-63-3",
  "name": "XENON",
  "aliases": [
    "Xenon"
  ],
  "mol_weight": 131.3,
  "critical": {
    "ref": "Default",
    "bib_reference": "",
    "temperature": 289.7,
    "pressure": 5840000.0,
    "compressibility": 0.287
  },
  "triple": {
    "ref": "Default",
    "bib_reference": "",
    "temperature": 0.0,
    "pressure": 0.0
  },
  "acentric_factor": {
    "ref": "Default",
    "bib_reference": "",
    "acf": 0.008
  },
  "boiling_temperature": {
    "bib_reference": "",
    "temperature": 165.0
  },
  "saturation": {
    "ref": "Default",
    "bib_reference": "",
    "correlation": 2,
    "ant": [
      0.0,
      0.0,
      0.0
    ],
    "Tmin": 0.0,
    "Tmax": 0.0
  },
  "ideal_heat_capacity-1": {
    "ref": "Default",
    "bib_reference": "",
    "correlation": 4,
    "cp": [
      20.786,
      0.0,
      0.0,
      0.0,
      0.0,
      0.0,
      0.0,
      0.0,
      0.0,
      0.0
    ],
    "Tmin": 0.0,
    "Tmax": 0.0
  },
  "reference_state": {
    "bib_reference": "",
    "enthalpy": 0.0,
    "entropy": 0.0
  },
  "standard_formation_energy": {
    "bib_reference": "",
    "enthalpy": 0.0,
    "gibbs": 0.0
  },
  "rackett_factor": {
    "bib_reference": "",
    "Zra": 0.2829
  },
  "dipole_moment": {
    "mu": 0.0,
    "bib_reference": ""
  },
  "quadrupole_moment": {
    "Q": 0.0,
    "bib_reference": ""
  },
  "SRK": {},
  "PR": {},
  "SAFTVRMIE-1": {
    "m": 1.000,
    "sigma": 3.9011E-10,
    "eps_depth_divk": 227.55,
    "lambda_a": 6.00,
    "lambda_r": 12.00,
    "mass": 2.1801716e-22,
    "eps": 0.0000,
    "beta": 0.0000,
    "assoc_scheme": "None",
    "fh_order": 0,
    "bib_reference": "Jadran Vrabec, Jurgen Stoll, Hans Hasse, J. Phys. Chem. B 2001, 105, DOI: 10.1021/jp012542o",
    "ref": "DEFAULT"
  }
}
