{
  "ident": "XE",
  "formula": "XE",
  "cas_number": "7440-63-3",
  "name": "XENON",
  "aliases": [
    "Xenon"
  ],
  "mol_weight": 131.3,
  "critical": {
    "ref": "Default",
    "bib_reference": "",
    "temperature": 289.7,
    "pressure": 5840000.0,
    "compressibility": 0.287
  },
  "triple": {
    "ref": "Default",
    "bib_reference": "",
    "temperature": 0.0,
    "pressure": 0.0
  },
  "acentric_factor": {
    "ref": "Default",
    "bib_reference": "",
    "acf": 0.008
  },
  "boiling_temperature": {
    "bib_reference": "",
    "temperature": 165.0
  },
  "saturation": {
    "ref": "Default",
    "bib_reference": "",
    "correlation": 2,
    "ant": [
      0.0,
      0.0,
      0.0
    ],
    "Tmin": 0.0,
    "Tmax": 0.0
  },
  "ideal_heat_capacity-1": {
    "ref": "Default",
    "bib_reference": "",
    "correlation": 4,
    "cp": [
      20.786,
      0.0,
      0.0,
      0.0,
      0.0,
      0.0,
      0.0,
      0.0,
      0.0,
      0.0
    ],
    "Tmin": 0.0,
    "Tmax": 0.0
  },
  "reference_state": {
    "bib_reference": "",
    "enthalpy": 0.0,
    "entropy": 0.0
  },
  "standard_formation_energy": {
    "bib_reference": "",
    "enthalpy": 0.0,
    "gibbs": 0.0
  },
  "rackett_factor": {
    "bib_reference": "",
    "Zra": 0.2829
  },
  "dipole_moment": {
    "mu": 0.0,
    "bib_reference": ""
  },
  "quadrupole_moment": {
    "Q": 0.0,
    "bib_reference": ""
  },
  "melting_curve": {
    "bib_reference": "DOI: 10.1016/0031-8914(62)90096-4",
    "ref": "DEFAULT",
    "correlation": "ML-1",
    "triple_temperature": 161.405,
    "maximum_temperature": 1300.0,
    "reducing_pressure": 1.013250E+05,
    "reducing_temperature": 1.0,
    "n_coeff": 2,
    "n_coeff_1": 2,
    "n_coeff_2": 0,
    "n_coeff_3": 0,
    "coeff": [
      -2575.0728,
      0.7983277028,
      0.0,
      0.0,
      0.0,
      0.0
    ],
    "exponents": [
      0.0,
      1.589165,
      0.0,
      0.0,
      0.0,
      0.0
    ]
  },
  "sublimation_curve": {
    "bib_reference": "Lemmon, E.W. (2003)",
    "ref": "DEFAULT",
    "correlation": "SL-3",
    "triple_temperature": 161.405,
    "minimum_temperature": 0.0,
    "reducing_pressure": 8.175000E+04,
    "reducing_temperature": 161.405,
    "n_coeff": 2,
    "n_coeff_1": 0,
    "n_coeff_2": 2,
    "n_coeff_3": 0,
    "coeff": [
      -13.9,
      14.0,
      0.0,
      0.0,
      0.0,
      0.0
    ],
    "exponents": [
      1.06,
      3.1,
      0.0,
      0.0,
      0.0,
      0.0
    ]
  },
  "SRK": {},
  "PR": {},
  "SAFTVRMIE-1": {
    "m": 1.000,
    "sigma": 3.9011E-10,
    "eps_depth_divk": 227.55,
    "lambda_a": 6.00,
    "lambda_r": 12.00,
    "mass": 2.1801716e-22,
    "eps": 0.0000,
    "beta": 0.0000,
    "assoc_scheme": "None",
    "fh_order": 0,
    "bib_reference": "Jadran Vrabec, Jurgen Stoll, Hans Hasse, J. Phys. Chem. B 2001, 105, DOI: 10.1021/jp012542o",
    "ref": "DEFAULT"
  }
}
